+ 0.11016 3 4 tcp 40 ------- 1 0.0 8.0 0 0
- 0.11016 3 4 tcp 40 ------- 1 0.0 8.0 0 0
r 0.31141 3 4 tcp 40 ------- 1 0.0 8.0 0 0
+ 0.57402 3 4 tcp 140 ------- 1 0.0 8.0 1 2
- 0.57402 3 4 tcp 140 ------- 1 0.0 8.0 1 2
+ 0.57458 3 4 tcp 140 ------- 1 0.0 8.0 2 3
- 0.578395 3 4 tcp 140 ------- 1 0.0 8.0 2 3
r 0.778395 3 4 tcp 140 ------- 1 0.0 8.0 1 2
r 0.78277 3 4 tcp 140 ------- 1 0.0 8.0 2 3
+ 1.041805 3 4 tcp 140 ------- 1 0.0 8.0 3 6
- 1.041805 3 4 tcp 140 ------- 1 0.0 8.0 3 6
+ 1.042365 3 4 tcp 140 ------- 1 0.0 8.0 4 7
+ 1.04618 3 4 tcp 140 ------- 1 0.0 8.0 5 8
- 1.04618 3 4 tcp 140 ------- 1 0.0 8.0 4 7
+ 1.04674 3 4 tcp 140 ------- 1 0.0 8.0 6 9
- 1.050555 3 4 tcp 140 ------- 1 0.0 8.0 5 8
- 1.05493 3 4 tcp 140 ------- 1 0.0 8.0 6 9
r 1.24618 3 4 tcp 140 ------- 1 0.0 8.0 3 6
r 1.250555 3 4 tcp 140 ------- 1 0.0 8.0 4 7
r 1.25493 3 4 tcp 140 ------- 1 0.0 8.0 5 8
r 1.259305 3 4 tcp 140 ------- 1 0.0 8.0 6 9
+ 1.50959 3 4 tcp 140 ------- 1 0.0 8.0 7 14
- 1.50959 3 4 tcp 140 ------- 1 0.0 8.0 7 14
+ 1.51015 3 4 tcp 140 ------- 1 0.0 8.0 8 15
+ 1.513965 3 4 tcp 140 ------- 1 0.0 8.0 9 16
- 1.513965 3 4 tcp 140 ------- 1 0.0 8.0 8 15
+ 1.514525 3 4 tcp 140 ------- 1 0.0 8.0 10 17
+ 1.51834 3 4 tcp 140 ------- 1 0.0 8.0 11 18
- 1.51834 3 4 tcp 140 ------- 1 0.0 8.0 9 16
+ 1.5189 3 4 tcp 140 ------- 1 0.0 8.0 12 19
+ 1.522715 3 4 tcp 140 ------- 1 0.0 8.0 13 20
- 1.522715 3 4 tcp 140 ------- 1 0.0 8.0 10 17
+ 1.523275 3 4 tcp 140 ------- 1 0.0 8.0 14 21
- 1.52709 3 4 tcp 140 ------- 1 0.0 8.0 11 18
- 1.531465 3 4 tcp 140 ------- 1 0.0 8.0 12 19
- 1.53584 3 4 tcp 140 ------- 1 0.0 8.0 13 20
- 1.540215 3 4 tcp 140 ------- 1 0.0 8.0 14 21
r 1.713965 3 4 tcp 140 ------- 1 0.0 8.0 7 14
r 1.71834 3 4 tcp 140 ------- 1 0.0 8.0 8 15
r 1.722715 3 4 tcp 140 ------- 1 0.0 8.0 9 16
r 1.72709 3 4 tcp 140 ------- 1 0.0 8.0 10 17
r 1.731465 3 4 tcp 140 ------- 1 0.0 8.0 11 18
r 1.73584 3 4 tcp 140 ------- 1 0.0 8.0 12 19
r 1.740215 3 4 tcp 140 ------- 1 0.0 8.0 13 20
r 1.74459 3 4 tcp 140 ------- 1 0.0 8.0 14 21
+ 1.977375 3 4 tcp 140 ------- 1 0.0 8.0 15 30
- 1.977375 3 4 tcp 140 ------- 1 0.0 8.0 15 30
+ 1.977935 3 4 tcp 140 ------- 1 0.0 8.0 16 31
+ 1.98175 3 4 tcp 140 ------- 1 0.0 8.0 17 32
- 1.98175 3 4 tcp 140 ------- 1 0.0 8.0 16 31
+ 1.98231 3 4 tcp 140 ------- 1 0.0 8.0 18 33
+ 1.986125 3 4 tcp 140 ------- 1 0.0 8.0 19 34
- 1.986125 3 4 tcp 140 ------- 1 0.0 8.0 17 32
+ 1.986685 3 4 tcp 140 ------- 1 0.0 8.0 20 35
+ 1.9905 3 4 tcp 140 ------- 1 0.0 8.0 21 36
- 1.9905 3 4 tcp 140 ------- 1 0.0 8.0 18 33
+ 1.99106 3 4 tcp 140 ------- 1 0.0 8.0 22 37
+ 1.994875 3 4 tcp 140 ------- 1 0.0 8.0 23 38
- 1.994875 3 4 tcp 140 ------- 1 0.0 8.0 19 34
+ 1.995435 3 4 tcp 140 ------- 1 0.0 8.0 24 39
+ 1.99925 3 4 tcp 140 ------- 1 0.0 8.0 25 40
d 1.99925 3 4 tcp 140 ------- 1 0.0 8.0 25 40
- 1.99925 3 4 tcp 140 ------- 1 0.0 8.0 20 35
+ 1.99981 3 4 tcp 140 ------- 1 0.0 8.0 26 41
+ 2.003625 3 4 tcp 140 ------- 1 0.0 8.0 27 42
d 2.003625 3 4 tcp 140 ------- 1 0.0 8.0 27 42
- 2.003625 3 4 tcp 140 ------- 1 0.0 8.0 21 36
+ 2.004185 3 4 tcp 140 ------- 1 0.0 8.0 28 43
+ 2.008 3 4 tcp 140 ------- 1 0.0 8.0 29 44
d 2.008 3 4 tcp 140 ------- 1 0.0 8.0 29 44
- 2.008 3 4 tcp 140 ------- 1 0.0 8.0 22 37
- 2.012375 3 4 tcp 140 ------- 1 0.0 8.0 23 38
- 2.01675 3 4 tcp 140 ------- 1 0.0 8.0 24 39
- 2.021125 3 4 tcp 140 ------- 1 0.0 8.0 26 41
- 2.0255 3 4 tcp 140 ------- 1 0.0 8.0 28 43
r 2.18175 3 4 tcp 140 ------- 1 0.0 8.0 15 30
r 2.186125 3 4 tcp 140 ------- 1 0.0 8.0 16 31
r 2.1905 3 4 tcp 140 ------- 1 0.0 8.0 17 32
r 2.194875 3 4 tcp 140 ------- 1 0.0 8.0 18 33
r 2.19925 3 4 tcp 140 ------- 1 0.0 8.0 19 34
r 2.203625 3 4 tcp 140 ------- 1 0.0 8.0 20 35
r 2.208 3 4 tcp 140 ------- 1 0.0 8.0 21 36
r 2.212375 3 4 tcp 140 ------- 1 0.0 8.0 22 37
r 2.21675 3 4 tcp 140 ------- 1 0.0 8.0 23 38
r 2.221125 3 4 tcp 140 ------- 1 0.0 8.0 24 39
r 2.2255 3 4 tcp 140 ------- 1 0.0 8.0 26 41
r 2.229875 3 4 tcp 140 ------- 1 0.0 8.0 28 43
+ 2.44516 3 4 tcp 140 ------- 1 0.0 8.0 30 57
- 2.44516 3 4 tcp 140 ------- 1 0.0 8.0 30 57
+ 2.449535 3 4 tcp 140 ------- 1 0.0 8.0 31 58
- 2.449535 3 4 tcp 140 ------- 1 0.0 8.0 31 58
+ 2.45391 3 4 tcp 140 ------- 1 0.0 8.0 32 59
- 2.45391 3 4 tcp 140 ------- 1 0.0 8.0 32 59
+ 2.458285 3 4 tcp 140 ------- 1 0.0 8.0 33 60
- 2.458285 3 4 tcp 140 ------- 1 0.0 8.0 33 60
+ 2.46266 3 4 tcp 140 ------- 1 0.0 8.0 34 61
- 2.46266 3 4 tcp 140 ------- 1 0.0 8.0 34 61
+ 2.467035 3 4 tcp 140 ------- 1 0.0 8.0 35 62
- 2.467035 3 4 tcp 140 ------- 1 0.0 8.0 35 62
+ 2.47141 3 4 tcp 140 ------- 1 0.0 8.0 36 63
- 2.47141 3 4 tcp 140 ------- 1 0.0 8.0 36 63
+ 2.475785 3 4 tcp 140 ------- 1 0.0 8.0 37 64
- 2.475785 3 4 tcp 140 ------- 1 0.0 8.0 37 64
+ 2.48016 3 4 tcp 140 ------- 1 0.0 8.0 38 65
- 2.48016 3 4 tcp 140 ------- 1 0.0 8.0 38 65
+ 2.484535 3 4 tcp 140 ------- 1 0.0 8.0 39 66
- 2.484535 3 4 tcp 140 ------- 1 0.0 8.0 39 66
+ 2.48891 3 4 tcp 140 ------- 1 0.0 8.0 40 67
- 2.48891 3 4 tcp 140 ------- 1 0.0 8.0 40 67
+ 2.493285 3 4 tcp 140 ------- 1 0.0 8.0 41 68
- 2.493285 3 4 tcp 140 ------- 1 0.0 8.0 41 68
r 2.649535 3 4 tcp 140 ------- 1 0.0 8.0 30 57
r 2.65391 3 4 tcp 140 ------- 1 0.0 8.0 31 58
r 2.658285 3 4 tcp 140 ------- 1 0.0 8.0 32 59
r 2.66266 3 4 tcp 140 ------- 1 0.0 8.0 33 60
r 2.667035 3 4 tcp 140 ------- 1 0.0 8.0 34 61
r 2.67141 3 4 tcp 140 ------- 1 0.0 8.0 35 62
r 2.675785 3 4 tcp 140 ------- 1 0.0 8.0 36 63
r 2.68016 3 4 tcp 140 ------- 1 0.0 8.0 37 64
r 2.684535 3 4 tcp 140 ------- 1 0.0 8.0 38 65
r 2.68891 3 4 tcp 140 ------- 1 0.0 8.0 39 66
r 2.693285 3 4 tcp 140 ------- 1 0.0 8.0 40 67
r 2.69766 3 4 tcp 140 ------- 1 0.0 8.0 41 68
+ 2.912945 3 4 tcp 140 ---A--- 1 0.0 8.0 25 81
- 2.912945 3 4 tcp 140 ---A--- 1 0.0 8.0 25 81
r 3.11732 3 4 tcp 140 ---A--- 1 0.0 8.0 25 81
+ 3.38073 3 4 tcp 140 ------- 1 0.0 8.0 27 83
- 3.38073 3 4 tcp 140 ------- 1 0.0 8.0 27 83
+ 3.38129 3 4 tcp 140 ------- 1 0.0 8.0 28 84
- 3.385105 3 4 tcp 140 ------- 1 0.0 8.0 28 84
r 3.585105 3 4 tcp 140 ------- 1 0.0 8.0 27 83
r 3.58948 3 4 tcp 140 ------- 1 0.0 8.0 28 84
+ 3.848515 3 4 tcp 140 ------- 1 0.0 8.0 29 87
- 3.848515 3 4 tcp 140 ------- 1 0.0 8.0 29 87
+ 3.849075 3 4 tcp 140 ------- 1 0.0 8.0 30 88
+ 3.849635 3 4 tcp 140 ------- 1 0.0 8.0 31 89
+ 3.85289 3 4 tcp 140 ------- 1 0.0 8.0 32 90
- 3.85289 3 4 tcp 140 ------- 1 0.0 8.0 30 88
- 3.857265 3 4 tcp 140 ------- 1 0.0 8.0 31 89
- 3.86164 3 4 tcp 140 ------- 1 0.0 8.0 32 90
r 4.05289 3 4 tcp 140 ------- 1 0.0 8.0 29 87
r 4.057265 3 4 tcp 140 ------- 1 0.0 8.0 30 88
r 4.06164 3 4 tcp 140 ------- 1 0.0 8.0 31 89
r 4.066015 3 4 tcp 140 ------- 1 0.0 8.0 32 90
+ 4.3163 3 4 tcp 140 ------- 1 0.0 8.0 42 95
- 4.3163 3 4 tcp 140 ------- 1 0.0 8.0 42 95
+ 4.31686 3 4 tcp 140 ------- 1 0.0 8.0 43 96
+ 4.31742 3 4 tcp 140 ------- 1 0.0 8.0 44 97
+ 4.31798 3 4 tcp 140 ------- 1 0.0 8.0 45 98
- 4.320675 3 4 tcp 140 ------- 1 0.0 8.0 43 96
+ 4.320675 3 4 tcp 140 ------- 1 0.0 8.0 46 99
- 4.32505 3 4 tcp 140 ------- 1 0.0 8.0 44 97
+ 4.32505 3 4 tcp 140 ------- 1 0.0 8.0 47 100
- 4.329425 3 4 tcp 140 ------- 1 0.0 8.0 45 98
- 4.3338 3 4 tcp 140 ------- 1 0.0 8.0 46 99
- 4.338175 3 4 tcp 140 ------- 1 0.0 8.0 47 100
r 4.520675 3 4 tcp 140 ------- 1 0.0 8.0 42 95
r 4.52505 3 4 tcp 140 ------- 1 0.0 8.0 43 96
r 4.529425 3 4 tcp 140 ------- 1 0.0 8.0 44 97
r 4.5338 3 4 tcp 140 ------- 1 0.0 8.0 45 98
r 4.538175 3 4 tcp 140 ------- 1 0.0 8.0 46 99
r 4.54255 3 4 tcp 140 ------- 1 0.0 8.0 47 100
+ 4.78846 3 4 tcp 140 ------- 1 0.0 8.0 48 107
- 4.78846 3 4 tcp 140 ------- 1 0.0 8.0 48 107
+ 4.78902 3 4 tcp 140 ------- 1 0.0 8.0 49 108
+ 4.792835 3 4 tcp 140 ------- 1 0.0 8.0 50 109
- 4.792835 3 4 tcp 140 ------- 1 0.0 8.0 49 108
+ 4.793395 3 4 tcp 140 ------- 1 0.0 8.0 51 110
+ 4.79721 3 4 tcp 140 ------- 1 0.0 8.0 52 111
- 4.79721 3 4 tcp 140 ------- 1 0.0 8.0 50 109
+ 4.801585 3 4 tcp 140 ------- 1 0.0 8.0 53 112
- 4.801585 3 4 tcp 140 ------- 1 0.0 8.0 51 110
+ 4.80596 3 4 tcp 140 ------- 1 0.0 8.0 54 113
- 4.80596 3 4 tcp 140 ------- 1 0.0 8.0 52 111
- 4.810335 3 4 tcp 140 ------- 1 0.0 8.0 53 112
- 4.81471 3 4 tcp 140 ------- 1 0.0 8.0 54 113
r 4.992835 3 4 tcp 140 ------- 1 0.0 8.0 48 107
r 4.99721 3 4 tcp 140 ------- 1 0.0 8.0 49 108
r 5.001585 3 4 tcp 140 ------- 1 0.0 8.0 50 109
r 5.00596 3 4 tcp 140 ------- 1 0.0 8.0 51 110
r 5.010335 3 4 tcp 140 ------- 1 0.0 8.0 52 111
r 5.01471 3 4 tcp 140 ------- 1 0.0 8.0 53 112
r 5.019085 3 4 tcp 140 ------- 1 0.0 8.0 54 113
+ 5.256245 3 4 tcp 140 ------- 1 0.0 8.0 55 121
- 5.256245 3 4 tcp 140 ------- 1 0.0 8.0 55 121
+ 5.26062 3 4 tcp 140 ------- 1 0.0 8.0 56 122
- 5.26062 3 4 tcp 140 ------- 1 0.0 8.0 56 122
+ 5.264995 3 4 tcp 140 ------- 1 0.0 8.0 57 123
- 5.264995 3 4 tcp 140 ------- 1 0.0 8.0 57 123
+ 5.26937 3 4 tcp 140 ------- 1 0.0 8.0 58 124
- 5.26937 3 4 tcp 140 ------- 1 0.0 8.0 58 124
+ 5.273745 3 4 tcp 140 ------- 1 0.0 8.0 59 125
- 5.273745 3 4 tcp 140 ------- 1 0.0 8.0 59 125
+ 5.274305 3 4 tcp 140 ------- 1 0.0 8.0 60 126
+ 5.27812 3 4 tcp 140 ------- 1 0.0 8.0 61 127
- 5.27812 3 4 tcp 140 ------- 1 0.0 8.0 60 126
+ 5.282495 3 4 tcp 140 ------- 1 0.0 8.0 62 128
- 5.282495 3 4 tcp 140 ------- 1 0.0 8.0 61 127
- 5.28687 3 4 tcp 140 ------- 1 0.0 8.0 62 128
r 5.46062 3 4 tcp 140 ------- 1 0.0 8.0 55 121
r 5.464995 3 4 tcp 140 ------- 1 0.0 8.0 56 122
r 5.46937 3 4 tcp 140 ------- 1 0.0 8.0 57 123
r 5.473745 3 4 tcp 140 ------- 1 0.0 8.0 58 124
r 5.47812 3 4 tcp 140 ------- 1 0.0 8.0 59 125
r 5.482495 3 4 tcp 140 ------- 1 0.0 8.0 60 126
r 5.48687 3 4 tcp 140 ------- 1 0.0 8.0 61 127
r 5.491245 3 4 tcp 140 ------- 1 0.0 8.0 62 128
+ 5.72403 3 4 tcp 140 ------- 1 0.0 8.0 63 137
- 5.72403 3 4 tcp 140 ------- 1 0.0 8.0 63 137
+ 5.728405 3 4 tcp 140 ------- 1 0.0 8.0 64 138
- 5.728405 3 4 tcp 140 ------- 1 0.0 8.0 64 138
+ 5.73278 3 4 tcp 140 ------- 1 0.0 8.0 65 139
- 5.73278 3 4 tcp 140 ------- 1 0.0 8.0 65 139
+ 5.737155 3 4 tcp 140 ------- 1 0.0 8.0 66 140
- 5.737155 3 4 tcp 140 ------- 1 0.0 8.0 66 140
+ 5.74153 3 4 tcp 140 ------- 1 0.0 8.0 67 141
- 5.74153 3 4 tcp 140 ------- 1 0.0 8.0 67 141
+ 5.745905 3 4 tcp 140 ------- 1 0.0 8.0 68 142
- 5.745905 3 4 tcp 140 ------- 1 0.0 8.0 68 142
+ 5.746465 3 4 tcp 140 ------- 1 0.0 8.0 69 143
+ 5.75028 3 4 tcp 140 ------- 1 0.0 8.0 70 144
- 5.75028 3 4 tcp 140 ------- 1 0.0 8.0 69 143
+ 5.754655 3 4 tcp 140 ------- 1 0.0 8.0 71 145
- 5.754655 3 4 tcp 140 ------- 1 0.0 8.0 70 144
- 5.75903 3 4 tcp 140 ------- 1 0.0 8.0 71 145
r 5.928405 3 4 tcp 140 ------- 1 0.0 8.0 63 137
r 5.93278 3 4 tcp 140 ------- 1 0.0 8.0 64 138
r 5.937155 3 4 tcp 140 ------- 1 0.0 8.0 65 139
r 5.94153 3 4 tcp 140 ------- 1 0.0 8.0 66 140
r 5.945905 3 4 tcp 140 ------- 1 0.0 8.0 67 141
r 5.95028 3 4 tcp 140 ------- 1 0.0 8.0 68 142
r 5.954655 3 4 tcp 140 ------- 1 0.0 8.0 69 143
r 5.95903 3 4 tcp 140 ------- 1 0.0 8.0 70 144
r 5.963405 3 4 tcp 140 ------- 1 0.0 8.0 71 145
