+ 0.35205 4 3 ack 40 ------- 1 8.0 0.0 0 1
- 0.35205 4 3 ack 40 ------- 1 8.0 0.0 0 1
r 0.5533 4 3 ack 40 ------- 1 8.0 0.0 0 1
+ 0.819835 4 3 ack 40 ------- 1 8.0 0.0 1 4
- 0.819835 4 3 ack 40 ------- 1 8.0 0.0 1 4
+ 0.82421 4 3 ack 40 ------- 1 8.0 0.0 2 5
- 0.82421 4 3 ack 40 ------- 1 8.0 0.0 2 5
r 1.021085 4 3 ack 40 ------- 1 8.0 0.0 1 4
r 1.02546 4 3 ack 40 ------- 1 8.0 0.0 2 5
+ 1.28762 4 3 ack 40 ------- 1 8.0 0.0 3 10
- 1.28762 4 3 ack 40 ------- 1 8.0 0.0 3 10
+ 1.291995 4 3 ack 40 ------- 1 8.0 0.0 4 11
- 1.291995 4 3 ack 40 ------- 1 8.0 0.0 4 11
+ 1.29637 4 3 ack 40 ------- 1 8.0 0.0 5 12
- 1.29637 4 3 ack 40 ------- 1 8.0 0.0 5 12
+ 1.300745 4 3 ack 40 ------- 1 8.0 0.0 6 13
- 1.300745 4 3 ack 40 ------- 1 8.0 0.0 6 13
r 1.48887 4 3 ack 40 ------- 1 8.0 0.0 3 10
r 1.493245 4 3 ack 40 ------- 1 8.0 0.0 4 11
r 1.49762 4 3 ack 40 ------- 1 8.0 0.0 5 12
r 1.501995 4 3 ack 40 ------- 1 8.0 0.0 6 13
+ 1.755405 4 3 ack 40 ------- 1 8.0 0.0 7 22
- 1.755405 4 3 ack 40 ------- 1 8.0 0.0 7 22
+ 1.75978 4 3 ack 40 ------- 1 8.0 0.0 8 23
- 1.75978 4 3 ack 40 ------- 1 8.0 0.0 8 23
+ 1.764155 4 3 ack 40 ------- 1 8.0 0.0 9 24
- 1.764155 4 3 ack 40 ------- 1 8.0 0.0 9 24
+ 1.76853 4 3 ack 40 ------- 1 8.0 0.0 10 25
- 1.76853 4 3 ack 40 ------- 1 8.0 0.0 10 25
+ 1.772905 4 3 ack 40 ------- 1 8.0 0.0 11 26
- 1.772905 4 3 ack 40 ------- 1 8.0 0.0 11 26
+ 1.77728 4 3 ack 40 ------- 1 8.0 0.0 12 27
- 1.77728 4 3 ack 40 ------- 1 8.0 0.0 12 27
+ 1.781655 4 3 ack 40 ------- 1 8.0 0.0 13 28
- 1.781655 4 3 ack 40 ------- 1 8.0 0.0 13 28
+ 1.78603 4 3 ack 40 ------- 1 8.0 0.0 14 29
- 1.78603 4 3 ack 40 ------- 1 8.0 0.0 14 29
r 1.956655 4 3 ack 40 ------- 1 8.0 0.0 7 22
r 1.96103 4 3 ack 40 ------- 1 8.0 0.0 8 23
r 1.965405 4 3 ack 40 ------- 1 8.0 0.0 9 24
r 1.96978 4 3 ack 40 ------- 1 8.0 0.0 10 25
r 1.974155 4 3 ack 40 ------- 1 8.0 0.0 11 26
r 1.97853 4 3 ack 40 ------- 1 8.0 0.0 12 27
r 1.982905 4 3 ack 40 ------- 1 8.0 0.0 13 28
r 1.98728 4 3 ack 40 ------- 1 8.0 0.0 14 29
+ 2.22319 4 3 ack 40 ------- 1 8.0 0.0 15 45
- 2.22319 4 3 ack 40 ------- 1 8.0 0.0 15 45
+ 2.227565 4 3 ack 40 ------- 1 8.0 0.0 16 46
- 2.227565 4 3 ack 40 ------- 1 8.0 0.0 16 46
+ 2.23194 4 3 ack 40 ------- 1 8.0 0.0 17 47
- 2.23194 4 3 ack 40 ------- 1 8.0 0.0 17 47
+ 2.236315 4 3 ack 40 ------- 1 8.0 0.0 18 48
- 2.236315 4 3 ack 40 ------- 1 8.0 0.0 18 48
+ 2.24069 4 3 ack 40 ------- 1 8.0 0.0 19 49
- 2.24069 4 3 ack 40 ------- 1 8.0 0.0 19 49
+ 2.245065 4 3 ack 40 ------- 1 8.0 0.0 20 50
- 2.245065 4 3 ack 40 ------- 1 8.0 0.0 20 50
+ 2.24944 4 3 ack 40 ------- 1 8.0 0.0 21 51
- 2.24944 4 3 ack 40 ------- 1 8.0 0.0 21 51
+ 2.253815 4 3 ack 40 ------- 1 8.0 0.0 22 52
- 2.253815 4 3 ack 40 ------- 1 8.0 0.0 22 52
+ 2.25819 4 3 ack 40 ------- 1 8.0 0.0 23 53
- 2.25819 4 3 ack 40 ------- 1 8.0 0.0 23 53
+ 2.262565 4 3 ack 40 ------- 1 8.0 0.0 24 54
- 2.262565 4 3 ack 40 ------- 1 8.0 0.0 24 54
+ 2.26694 4 3 ack 40 ------- 1 8.0 0.0 24 55
- 2.26694 4 3 ack 40 ------- 1 8.0 0.0 24 55
+ 2.271315 4 3 ack 40 ------- 1 8.0 0.0 24 56
- 2.271315 4 3 ack 40 ------- 1 8.0 0.0 24 56
r 2.42444 4 3 ack 40 ------- 1 8.0 0.0 15 45
r 2.428815 4 3 ack 40 ------- 1 8.0 0.0 16 46
r 2.43319 4 3 ack 40 ------- 1 8.0 0.0 17 47
r 2.437565 4 3 ack 40 ------- 1 8.0 0.0 18 48
r 2.44194 4 3 ack 40 ------- 1 8.0 0.0 19 49
r 2.446315 4 3 ack 40 ------- 1 8.0 0.0 20 50
r 2.45069 4 3 ack 40 ------- 1 8.0 0.0 21 51
r 2.455065 4 3 ack 40 ------- 1 8.0 0.0 22 52
r 2.45944 4 3 ack 40 ------- 1 8.0 0.0 23 53
r 2.463815 4 3 ack 40 ------- 1 8.0 0.0 24 54
r 2.46819 4 3 ack 40 ------- 1 8.0 0.0 24 55
r 2.472565 4 3 ack 40 ------- 1 8.0 0.0 24 56
+ 2.690975 4 3 ack 40 ------- 1 8.0 0.0 24 69
- 2.690975 4 3 ack 40 ------- 1 8.0 0.0 24 69
+ 2.69535 4 3 ack 40 ------- 1 8.0 0.0 24 70
- 2.69535 4 3 ack 40 ------- 1 8.0 0.0 24 70
+ 2.699725 4 3 ack 40 ------- 1 8.0 0.0 24 71
- 2.699725 4 3 ack 40 ------- 1 8.0 0.0 24 71
+ 2.7041 4 3 ack 40 ------- 1 8.0 0.0 24 72
- 2.7041 4 3 ack 40 ------- 1 8.0 0.0 24 72
+ 2.708475 4 3 ack 40 ------- 1 8.0 0.0 24 73
- 2.708475 4 3 ack 40 ------- 1 8.0 0.0 24 73
+ 2.71285 4 3 ack 40 ------- 1 8.0 0.0 24 74
- 2.71285 4 3 ack 40 ------- 1 8.0 0.0 24 74
+ 2.717225 4 3 ack 40 ------- 1 8.0 0.0 24 75
- 2.717225 4 3 ack 40 ------- 1 8.0 0.0 24 75
+ 2.7216 4 3 ack 40 ------- 1 8.0 0.0 24 76
- 2.7216 4 3 ack 40 ------- 1 8.0 0.0 24 76
+ 2.725975 4 3 ack 40 ------- 1 8.0 0.0 24 77
- 2.725975 4 3 ack 40 ------- 1 8.0 0.0 24 77
+ 2.73035 4 3 ack 40 ------- 1 8.0 0.0 24 78
- 2.73035 4 3 ack 40 ------- 1 8.0 0.0 24 78
+ 2.734725 4 3 ack 40 ------- 1 8.0 0.0 24 79
- 2.734725 4 3 ack 40 ------- 1 8.0 0.0 24 79
+ 2.7391 4 3 ack 40 ------- 1 8.0 0.0 24 80
- 2.7391 4 3 ack 40 ------- 1 8.0 0.0 24 80
r 2.892225 4 3 ack 40 ------- 1 8.0 0.0 24 69
r 2.8966 4 3 ack 40 ------- 1 8.0 0.0 24 70
r 2.900975 4 3 ack 40 ------- 1 8.0 0.0 24 71
r 2.90535 4 3 ack 40 ------- 1 8.0 0.0 24 72
r 2.909725 4 3 ack 40 ------- 1 8.0 0.0 24 73
r 2.9141 4 3 ack 40 ------- 1 8.0 0.0 24 74
r 2.918475 4 3 ack 40 ------- 1 8.0 0.0 24 75
r 2.92285 4 3 ack 40 ------- 1 8.0 0.0 24 76
r 2.927225 4 3 ack 40 ------- 1 8.0 0.0 24 77
r 2.9316 4 3 ack 40 ------- 1 8.0 0.0 24 78
r 2.935975 4 3 ack 40 ------- 1 8.0 0.0 24 79
r 2.94035 4 3 ack 40 ------- 1 8.0 0.0 24 80
+ 3.15876 4 3 ack 40 ------- 1 8.0 0.0 26 82
- 3.15876 4 3 ack 40 ------- 1 8.0 0.0 26 82
r 3.36001 4 3 ack 40 ------- 1 8.0 0.0 26 82
+ 3.626545 4 3 ack 40 ------- 1 8.0 0.0 28 85
- 3.626545 4 3 ack 40 ------- 1 8.0 0.0 28 85
+ 3.63092 4 3 ack 40 ------- 1 8.0 0.0 28 86
- 3.63092 4 3 ack 40 ------- 1 8.0 0.0 28 86
r 3.827795 4 3 ack 40 ------- 1 8.0 0.0 28 85
r 3.83217 4 3 ack 40 ------- 1 8.0 0.0 28 86
+ 4.09433 4 3 ack 40 ------- 1 8.0 0.0 41 91
- 4.09433 4 3 ack 40 ------- 1 8.0 0.0 41 91
+ 4.098705 4 3 ack 40 ------- 1 8.0 0.0 41 92
- 4.098705 4 3 ack 40 ------- 1 8.0 0.0 41 92
+ 4.10308 4 3 ack 40 ------- 1 8.0 0.0 41 93
- 4.10308 4 3 ack 40 ------- 1 8.0 0.0 41 93
+ 4.107455 4 3 ack 40 ------- 1 8.0 0.0 41 94
- 4.107455 4 3 ack 40 ------- 1 8.0 0.0 41 94
r 4.29558 4 3 ack 40 ------- 1 8.0 0.0 41 91
r 4.299955 4 3 ack 40 ------- 1 8.0 0.0 41 92
r 4.30433 4 3 ack 40 ------- 1 8.0 0.0 41 93
r 4.308705 4 3 ack 40 ------- 1 8.0 0.0 41 94
+ 4.562115 4 3 ack 40 ------- 1 8.0 0.0 42 101
- 4.562115 4 3 ack 40 ------- 1 8.0 0.0 42 101
+ 4.56649 4 3 ack 40 ------- 1 8.0 0.0 43 102
- 4.56649 4 3 ack 40 ------- 1 8.0 0.0 43 102
+ 4.570865 4 3 ack 40 ------- 1 8.0 0.0 44 103
- 4.570865 4 3 ack 40 ------- 1 8.0 0.0 44 103
+ 4.57524 4 3 ack 40 ------- 1 8.0 0.0 45 104
- 4.57524 4 3 ack 40 ------- 1 8.0 0.0 45 104
+ 4.579615 4 3 ack 40 ------- 1 8.0 0.0 46 105
- 4.579615 4 3 ack 40 ------- 1 8.0 0.0 46 105
+ 4.58399 4 3 ack 40 ------- 1 8.0 0.0 47 106
- 4.58399 4 3 ack 40 ------- 1 8.0 0.0 47 106
r 4.763365 4 3 ack 40 ------- 1 8.0 0.0 42 101
r 4.76774 4 3 ack 40 ------- 1 8.0 0.0 43 102
r 4.772115 4 3 ack 40 ------- 1 8.0 0.0 44 103
r 4.77649 4 3 ack 40 ------- 1 8.0 0.0 45 104
r 4.780865 4 3 ack 40 ------- 1 8.0 0.0 46 105
r 4.78524 4 3 ack 40 ------- 1 8.0 0.0 47 106
+ 5.034275 4 3 ack 40 ------- 1 8.0 0.0 48 114
- 5.034275 4 3 ack 40 ------- 1 8.0 0.0 48 114
+ 5.03865 4 3 ack 40 ------- 1 8.0 0.0 49 115
- 5.03865 4 3 ack 40 ------- 1 8.0 0.0 49 115
+ 5.043025 4 3 ack 40 ------- 1 8.0 0.0 50 116
- 5.043025 4 3 ack 40 ------- 1 8.0 0.0 50 116
+ 5.0474 4 3 ack 40 ------- 1 8.0 0.0 51 117
- 5.0474 4 3 ack 40 ------- 1 8.0 0.0 51 117
+ 5.051775 4 3 ack 40 ------- 1 8.0 0.0 52 118
- 5.051775 4 3 ack 40 ------- 1 8.0 0.0 52 118
+ 5.05615 4 3 ack 40 ------- 1 8.0 0.0 53 119
- 5.05615 4 3 ack 40 ------- 1 8.0 0.0 53 119
+ 5.060525 4 3 ack 40 ------- 1 8.0 0.0 54 120
- 5.060525 4 3 ack 40 ------- 1 8.0 0.0 54 120
r 5.235525 4 3 ack 40 ------- 1 8.0 0.0 48 114
r 5.2399 4 3 ack 40 ------- 1 8.0 0.0 49 115
r 5.244275 4 3 ack 40 ------- 1 8.0 0.0 50 116
r 5.24865 4 3 ack 40 ------- 1 8.0 0.0 51 117
r 5.253025 4 3 ack 40 ------- 1 8.0 0.0 52 118
r 5.2574 4 3 ack 40 ------- 1 8.0 0.0 53 119
r 5.261775 4 3 ack 40 ------- 1 8.0 0.0 54 120
+ 5.50206 4 3 ack 40 ------- 1 8.0 0.0 55 129
- 5.50206 4 3 ack 40 ------- 1 8.0 0.0 55 129
+ 5.506435 4 3 ack 40 ------- 1 8.0 0.0 56 130
- 5.506435 4 3 ack 40 ------- 1 8.0 0.0 56 130
+ 5.51081 4 3 ack 40 ------- 1 8.0 0.0 57 131
- 5.51081 4 3 ack 40 ------- 1 8.0 0.0 57 131
+ 5.515185 4 3 ack 40 ------- 1 8.0 0.0 58 132
- 5.515185 4 3 ack 40 ------- 1 8.0 0.0 58 132
+ 5.51956 4 3 ack 40 ------- 1 8.0 0.0 59 133
- 5.51956 4 3 ack 40 ------- 1 8.0 0.0 59 133
+ 5.523935 4 3 ack 40 ------- 1 8.0 0.0 60 134
- 5.523935 4 3 ack 40 ------- 1 8.0 0.0 60 134
+ 5.52831 4 3 ack 40 ------- 1 8.0 0.0 61 135
- 5.52831 4 3 ack 40 ------- 1 8.0 0.0 61 135
+ 5.532685 4 3 ack 40 ------- 1 8.0 0.0 62 136
- 5.532685 4 3 ack 40 ------- 1 8.0 0.0 62 136
r 5.70331 4 3 ack 40 ------- 1 8.0 0.0 55 129
r 5.707685 4 3 ack 40 ------- 1 8.0 0.0 56 130
r 5.71206 4 3 ack 40 ------- 1 8.0 0.0 57 131
r 5.716435 4 3 ack 40 ------- 1 8.0 0.0 58 132
r 5.72081 4 3 ack 40 ------- 1 8.0 0.0 59 133
r 5.725185 4 3 ack 40 ------- 1 8.0 0.0 60 134
r 5.72956 4 3 ack 40 ------- 1 8.0 0.0 61 135
r 5.733935 4 3 ack 40 ------- 1 8.0 0.0 62 136
+ 5.969845 4 3 ack 40 ------- 1 8.0 0.0 63 146
- 5.969845 4 3 ack 40 ------- 1 8.0 0.0 63 146
+ 5.97422 4 3 ack 40 ------- 1 8.0 0.0 64 147
- 5.97422 4 3 ack 40 ------- 1 8.0 0.0 64 147
+ 5.978595 4 3 ack 40 ------- 1 8.0 0.0 65 148
- 5.978595 4 3 ack 40 ------- 1 8.0 0.0 65 148
+ 5.98297 4 3 ack 40 ------- 1 8.0 0.0 66 149
- 5.98297 4 3 ack 40 ------- 1 8.0 0.0 66 149
+ 5.987345 4 3 ack 40 ------- 1 8.0 0.0 67 150
- 5.987345 4 3 ack 40 ------- 1 8.0 0.0 67 150
+ 5.99172 4 3 ack 40 ------- 1 8.0 0.0 68 151
- 5.99172 4 3 ack 40 ------- 1 8.0 0.0 68 151
+ 5.996095 4 3 ack 40 ------- 1 8.0 0.0 69 152
- 5.996095 4 3 ack 40 ------- 1 8.0 0.0 69 152
