V -t * -v 1.0a5 -a 0
A -t * -n 1 -p 0 -o 0x7fffffff -c 30 -a 1
A -t * -h 1 -m 1073741823 -s 0
n -t * -a 8 -s 8 -S UP -v circle -c black -i black
n -t * -a 4 -s 4 -S UP -v circle -c black -i black
n -t * -a 0 -s 0 -S UP -v circle -c black -i black
n -t * -a 10 -s 10 -S UP -v circle -c black -i black
n -t * -a 9 -s 9 -S UP -v circle -c black -i black
n -t * -a 5 -s 5 -S UP -v circle -c black -i black
n -t * -a 1 -s 1 -S UP -v circle -c black -i black
n -t * -a 6 -s 6 -S UP -v circle -c black -i black
n -t * -a 2 -s 2 -S UP -v circle -c black -i black
n -t * -a 7 -s 7 -S UP -v circle -c black -i black
n -t * -a 3 -s 3 -S UP -v circle -c black -i black
l -t * -s 3 -d 0 -S UP -r 2000000 -D 0.0050000000000000001 -c black -o left-up
l -t * -s 3 -d 1 -S UP -r 2000000 -D 0.0050000000000000001 -c black -o left
l -t * -s 3 -d 2 -S UP -r 2000000 -D 0.0050000000000000001 -c black -o left-down
l -t * -s 3 -d 4 -S UP -r 1500000 -D 0.0050000000000000001 -c black -o right-up
l -t * -s 3 -d 6 -S UP -r 2000000 -D 0.0050000000000000001 -c black -o right-down
l -t * -s 4 -d 5 -S UP -r 2000000 -D 0.0050000000000000001 -c black -o right
l -t * -s 5 -d 8 -S UP -r 2000000 -D 0.0050000000000000001 -c black -o right
l -t * -s 6 -d 7 -S UP -r 2000000 -D 0.0050000000000000001 -c black -o right
l -t * -s 5 -d 7 -S UP -r 2000000 -D 0.0050000000000000001 -c black -o down
l -t * -s 7 -d 9 -S UP -r 2000000 -D 0.0050000000000000001 -c black -o right
l -t * -s 7 -d 10 -S UP -r 2000000 -D 0.0050000000000000001 -c black -o down
q -t * -s 3 -d 4 -a 0.5
q -t * -s 4 -d 3 -a 0.5
+ -t 0.1 -s 0 -d 3 -p cbr -e 300 -c 0 -i 0 -a 0 -x {0.0 8.0 0 ------- null}
- -t 0.1 -s 0 -d 3 -p cbr -e 300 -c 0 -i 0 -a 0 -x {0.0 8.0 0 ------- null}
h -t 0.1 -s 0 -d 3 -p cbr -e 300 -c 0 -i 0 -a 0 -x {0.0 8.0 -1 ------- null}
+ -t 0.102 -s 0 -d 3 -p cbr -e 300 -c 0 -i 1 -a 0 -x {0.0 8.0 1 ------- null}
- -t 0.102 -s 0 -d 3 -p cbr -e 300 -c 0 -i 1 -a 0 -x {0.0 8.0 1 ------- null}
h -t 0.102 -s 0 -d 3 -p cbr -e 300 -c 0 -i 1 -a 0 -x {0.0 8.0 -1 ------- null}
+ -t 0.104 -s 0 -d 3 -p cbr -e 300 -c 0 -i 2 -a 0 -x {0.0 8.0 2 ------- null}
- -t 0.104 -s 0 -d 3 -p cbr -e 300 -c 0 -i 2 -a 0 -x {0.0 8.0 2 ------- null}
h -t 0.104 -s 0 -d 3 -p cbr -e 300 -c 0 -i 2 -a 0 -x {0.0 8.0 -1 ------- null}
+ -t 0.106 -s 0 -d 3 -p cbr -e 300 -c 0 -i 3 -a 0 -x {0.0 8.0 3 ------- null}
- -t 0.106 -s 0 -d 3 -p cbr -e 300 -c 0 -i 3 -a 0 -x {0.0 8.0 3 ------- null}
h -t 0.106 -s 0 -d 3 -p cbr -e 300 -c 0 -i 3 -a 0 -x {0.0 8.0 -1 ------- null}
r -t 0.1062 -s 0 -d 3 -p cbr -e 300 -c 0 -i 0 -a 0 -x {0.0 8.0 0 ------- null}
+ -t 0.1062 -s 3 -d 4 -p cbr -e 300 -c 0 -i 0 -a 0 -x {0.0 8.0 0 ------- null}
- -t 0.1062 -s 3 -d 4 -p cbr -e 300 -c 0 -i 0 -a 0 -x {0.0 8.0 0 ------- null}
h -t 0.1062 -s 3 -d 4 -p cbr -e 300 -c 0 -i 0 -a 0 -x {0.0 8.0 -1 ------- null}
+ -t 0.108 -s 0 -d 3 -p cbr -e 300 -c 0 -i 4 -a 0 -x {0.0 8.0 4 ------- null}
- -t 0.108 -s 0 -d 3 -p cbr -e 300 -c 0 -i 4 -a 0 -x {0.0 8.0 4 ------- null}
h -t 0.108 -s 0 -d 3 -p cbr -e 300 -c 0 -i 4 -a 0 -x {0.0 8.0 -1 ------- null}
r -t 0.1082 -s 0 -d 3 -p cbr -e 300 -c 0 -i 1 -a 0 -x {0.0 8.0 1 ------- null}
+ -t 0.1082 -s 3 -d 4 -p cbr -e 300 -c 0 -i 1 -a 0 -x {0.0 8.0 1 ------- null}
- -t 0.1082 -s 3 -d 4 -p cbr -e 300 -c 0 -i 1 -a 0 -x {0.0 8.0 1 ------- null}
h -t 0.1082 -s 3 -d 4 -p cbr -e 300 -c 0 -i 1 -a 0 -x {0.0 8.0 -1 ------- null}
+ -t 0.11 -s 0 -d 3 -p cbr -e 300 -c 0 -i 5 -a 0 -x {0.0 8.0 5 ------- null}
- -t 0.11 -s 0 -d 3 -p cbr -e 300 -c 0 -i 5 -a 0 -x {0.0 8.0 5 ------- null}
h -t 0.11 -s 0 -d 3 -p cbr -e 300 -c 0 -i 5 -a 0 -x {0.0 8.0 -1 ------- null}
r -t 0.1102 -s 0 -d 3 -p cbr -e 300 -c 0 -i 2 -a 0 -x {0.0 8.0 2 ------- null}
+ -t 0.1102 -s 3 -d 4 -p cbr -e 300 -c 0 -i 2 -a 0 -x {0.0 8.0 2 ------- null}
- -t 0.1102 -s 3 -d 4 -p cbr -e 300 -c 0 -i 2 -a 0 -x {0.0 8.0 2 ------- null}
h -t 0.1102 -s 3 -d 4 -p cbr -e 300 -c 0 -i 2 -a 0 -x {0.0 8.0 -1 ------- null}
+ -t 0.112 -s 0 -d 3 -p cbr -e 300 -c 0 -i 6 -a 0 -x {0.0 8.0 6 ------- null}
- -t 0.112 -s 0 -d 3 -p cbr -e 300 -c 0 -i 6 -a 0 -x {0.0 8.0 6 ------- null}
h -t 0.112 -s 0 -d 3 -p cbr -e 300 -c 0 -i 6 -a 0 -x {0.0 8.0 -1 ------- null}
r -t 0.1122 -s 0 -d 3 -p cbr -e 300 -c 0 -i 3 -a 0 -x {0.0 8.0 3 ------- null}
+ -t 0.1122 -s 3 -d 4 -p cbr -e 300 -c 0 -i 3 -a 0 -x {0.0 8.0 3 ------- null}
- -t 0.1122 -s 3 -d 4 -p cbr -e 300 -c 0 -i 3 -a 0 -x {0.0 8.0 3 ------- null}
h -t 0.1122 -s 3 -d 4 -p cbr -e 300 -c 0 -i 3 -a 0 -x {0.0 8.0 -1 ------- null}
r -t 0.1128 -s 3 -d 4 -p cbr -e 300 -c 0 -i 0 -a 0 -x {0.0 8.0 0 ------- null}
+ -t 0.1128 -s 4 -d 5 -p cbr -e 300 -c 0 -i 0 -a 0 -x {0.0 8.0 0 ------- null}
- -t 0.1128 -s 4 -d 5 -p cbr -e 300 -c 0 -i 0 -a 0 -x {0.0 8.0 0 ------- null}
h -t 0.1128 -s 4 -d 5 -p cbr -e 300 -c 0 -i 0 -a 0 -x {0.0 8.0 -1 ------- null}
+ -t 0.114 -s 0 -d 3 -p cbr -e 300 -c 0 -i 7 -a 0 -x {0.0 8.0 7 ------- null}
- -t 0.114 -s 0 -d 3 -p cbr -e 300 -c 0 -i 7 -a 0 -x {0.0 8.0 7 ------- null}
h -t 0.114 -s 0 -d 3 -p cbr -e 300 -c 0 -i 7 -a 0 -x {0.0 8.0 -1 ------- null}
r -t 0.1142 -s 0 -d 3 -p cbr -e 300 -c 0 -i 4 -a 0 -x {0.0 8.0 4 ------- null}
+ -t 0.1142 -s 3 -d 4 -p cbr -e 300 -c 0 -i 4 -a 0 -x {0.0 8.0 4 ------- null}
- -t 0.1142 -s 3 -d 4 -p cbr -e 300 -c 0 -i 4 -a 0 -x {0.0 8.0 4 ------- null}
h -t 0.1142 -s 3 -d 4 -p cbr -e 300 -c 0 -i 4 -a 0 -x {0.0 8.0 -1 ------- null}
r -t 0.1148 -s 3 -d 4 -p cbr -e 300 -c 0 -i 1 -a 0 -x {0.0 8.0 1 ------- null}
+ -t 0.1148 -s 4 -d 5 -p cbr -e 300 -c 0 -i 1 -a 0 -x {0.0 8.0 1 ------- null}
- -t 0.1148 -s 4 -d 5 -p cbr -e 300 -c 0 -i 1 -a 0 -x {0.0 8.0 1 ------- null}
h -t 0.1148 -s 4 -d 5 -p cbr -e 300 -c 0 -i 1 -a 0 -x {0.0 8.0 -1 ------- null}
+ -t 0.116 -s 0 -d 3 -p cbr -e 300 -c 0 -i 8 -a 0 -x {0.0 8.0 8 ------- null}
- -t 0.116 -s 0 -d 3 -p cbr -e 300 -c 0 -i 8 -a 0 -x {0.0 8.0 8 ------- null}
h -t 0.116 -s 0 -d 3 -p cbr -e 300 -c 0 -i 8 -a 0 -x {0.0 8.0 -1 ------- null}
r -t 0.1162 -s 0 -d 3 -p cbr -e 300 -c 0 -i 5 -a 0 -x {0.0 8.0 5 ------- null}
+ -t 0.1162 -s 3 -d 4 -p cbr -e 300 -c 0 -i 5 -a 0 -x {0.0 8.0 5 ------- null}
- -t 0.1162 -s 3 -d 4 -p cbr -e 300 -c 0 -i 5 -a 0 -x {0.0 8.0 5 ------- null}
h -t 0.1162 -s 3 -d 4 -p cbr -e 300 -c 0 -i 5 -a 0 -x {0.0 8.0 -1 ------- null}
r -t 0.1168 -s 3 -d 4 -p cbr -e 300 -c 0 -i 2 -a 0 -x {0.0 8.0 2 ------- null}
+ -t 0.1168 -s 4 -d 5 -p cbr -e 300 -c 0 -i 2 -a 0 -x {0.0 8.0 2 ------- null}
- -t 0.1168 -s 4 -d 5 -p cbr -e 300 -c 0 -i 2 -a 0 -x {0.0 8.0 2 ------- null}
h -t 0.1168 -s 4 -d 5 -p cbr -e 300 -c 0 -i 2 -a 0 -x {0.0 8.0 -1 ------- null}
+ -t 0.118 -s 0 -d 3 -p cbr -e 300 -c 0 -i 9 -a 0 -x {0.0 8.0 9 ------- null}
- -t 0.118 -s 0 -d 3 -p cbr -e 300 -c 0 -i 9 -a 0 -x {0.0 8.0 9 ------- null}
h -t 0.118 -s 0 -d 3 -p cbr -e 300 -c 0 -i 9 -a 0 -x {0.0 8.0 -1 ------- null}
r -t 0.1182 -s 0 -d 3 -p cbr -e 300 -c 0 -i 6 -a 0 -x {0.0 8.0 6 ------- null}
+ -t 0.1182 -s 3 -d 4 -p cbr -e 300 -c 0 -i 6 -a 0 -x {0.0 8.0 6 ------- null}
- -t 0.1182 -s 3 -d 4 -p cbr -e 300 -c 0 -i 6 -a 0 -x {0.0 8.0 6 ------- null}
h -t 0.1182 -s 3 -d 4 -p cbr -e 300 -c 0 -i 6 -a 0 -x {0.0 8.0 -1 ------- null}
r -t 0.1188 -s 3 -d 4 -p cbr -e 300 -c 0 -i 3 -a 0 -x {0.0 8.0 3 ------- null}
+ -t 0.1188 -s 4 -d 5 -p cbr -e 300 -c 0 -i 3 -a 0 -x {0.0 8.0 3 ------- null}
- -t 0.1188 -s 4 -d 5 -p cbr -e 300 -c 0 -i 3 -a 0 -x {0.0 8.0 3 ------- null}
h -t 0.1188 -s 4 -d 5 -p cbr -e 300 -c 0 -i 3 -a 0 -x {0.0 8.0 -1 ------- null}
r -t 0.119 -s 4 -d 5 -p cbr -e 300 -c 0 -i 0 -a 0 -x {0.0 8.0 0 ------- null}
+ -t 0.119 -s 5 -d 8 -p cbr -e 300 -c 0 -i 0 -a 0 -x {0.0 8.0 0 ------- null}
- -t 0.119 -s 5 -d 8 -p cbr -e 300 -c 0 -i 0 -a 0 -x {0.0 8.0 0 ------- null}
h -t 0.119 -s 5 -d 8 -p cbr -e 300 -c 0 -i 0 -a 0 -x {0.0 8.0 -1 ------- null}
+ -t 0.12 -s 0 -d 3 -p cbr -e 300 -c 0 -i 10 -a 0 -x {0.0 8.0 10 ------- null}
- -t 0.12 -s 0 -d 3 -p cbr -e 300 -c 0 -i 10 -a 0 -x {0.0 8.0 10 ------- null}
h -t 0.12 -s 0 -d 3 -p cbr -e 300 -c 0 -i 10 -a 0 -x {0.0 8.0 -1 ------- null}
r -t 0.1202 -s 0 -d 3 -p cbr -e 300 -c 0 -i 7 -a 0 -x {0.0 8.0 7 ------- null}
+ -t 0.1202 -s 3 -d 4 -p cbr -e 300 -c 0 -i 7 -a 0 -x {0.0 8.0 7 ------- null}
- -t 0.1202 -s 3 -d 4 -p cbr -e 300 -c 0 -i 7 -a 0 -x {0.0 8.0 7 ------- null}
h -t 0.1202 -s 3 -d 4 -p cbr -e 300 -c 0 -i 7 -a 0 -x {0.0 8.0 -1 ------- null}
r -t 0.1208 -s 3 -d 4 -p cbr -e 300 -c 0 -i 4 -a 0 -x {0.0 8.0 4 ------- null}
+ -t 0.1208 -s 4 -d 5 -p cbr -e 300 -c 0 -i 4 -a 0 -x {0.0 8.0 4 ------- null}
- -t 0.1208 -s 4 -d 5 -p cbr -e 300 -c 0 -i 4 -a 0 -x {0.0 8.0 4 ------- null}
h -t 0.1208 -s 4 -d 5 -p cbr -e 300 -c 0 -i 4 -a 0 -x {0.0 8.0 -1 ------- null}
r -t 0.121 -s 4 -d 5 -p cbr -e 300 -c 0 -i 1 -a 0 -x {0.0 8.0 1 ------- null}
+ -t 0.121 -s 5 -d 8 -p cbr -e 300 -c 0 -i 1 -a 0 -x {0.0 8.0 1 ------- null}
- -t 0.121 -s 5 -d 8 -p cbr -e 300 -c 0 -i 1 -a 0 -x {0.0 8.0 1 ------- null}
h -t 0.121 -s 5 -d 8 -p cbr -e 300 -c 0 -i 1 -a 0 -x {0.0 8.0 -1 ------- null}
+ -t 0.122 -s 0 -d 3 -p cbr -e 300 -c 0 -i 11 -a 0 -x {0.0 8.0 11 ------- null}
- -t 0.122 -s 0 -d 3 -p cbr -e 300 -c 0 -i 11 -a 0 -x {0.0 8.0 11 ------- null}
h -t 0.122 -s 0 -d 3 -p cbr -e 300 -c 0 -i 11 -a 0 -x {0.0 8.0 -1 ------- null}
r -t 0.1222 -s 0 -d 3 -p cbr -e 300 -c 0 -i 8 -a 0 -x {0.0 8.0 8 ------- null}
+ -t 0.1222 -s 3 -d 4 -p cbr -e 300 -c 0 -i 8 -a 0 -x {0.0 8.0 8 ------- null}
- -t 0.1222 -s 3 -d 4 -p cbr -e 300 -c 0 -i 8 -a 0 -x {0.0 8.0 8 ------- null}
h -t 0.1222 -s 3 -d 4 -p cbr -e 300 -c 0 -i 8 -a 0 -x {0.0 8.0 -1 ------- null}
r -t 0.1228 -s 3 -d 4 -p cbr -e 300 -c 0 -i 5 -a 0 -x {0.0 8.0 5 ------- null}
+ -t 0.1228 -s 4 -d 5 -p cbr -e 300 -c 0 -i 5 -a 0 -x {0.0 8.0 5 ------- null}
- -t 0.1228 -s 4 -d 5 -p cbr -e 300 -c 0 -i 5 -a 0 -x {0.0 8.0 5 ------- null}
h -t 0.1228 -s 4 -d 5 -p cbr -e 300 -c 0 -i 5 -a 0 -x {0.0 8.0 -1 ------- null}
r -t 0.123 -s 4 -d 5 -p cbr -e 300 -c 0 -i 2 -a 0 -x {0.0 8.0 2 ------- null}
+ -t 0.123 -s 5 -d 8 -p cbr -e 300 -c 0 -i 2 -a 0 -x {0.0 8.0 2 ------- null}
- -t 0.123 -s 5 -d 8 -p cbr -e 300 -c 0 -i 2 -a 0 -x {0.0 8.0 2 ------- null}
h -t 0.123 -s 5 -d 8 -p cbr -e 300 -c 0 -i 2 -a 0 -x {0.0 8.0 -1 ------- null}
+ -t 0.124 -s 0 -d 3 -p cbr -e 300 -c 0 -i 12 -a 0 -x {0.0 8.0 12 ------- null}
- -t 0.124 -s 0 -d 3 -p cbr -e 300 -c 0 -i 12 -a 0 -x {0.0 8.0 12 ------- null}
h -t 0.124 -s 0 -d 3 -p cbr -e 300 -c 0 -i 12 -a 0 -x {0.0 8.0 -1 ------- null}
r -t 0.1242 -s 0 -d 3 -p cbr -e 300 -c 0 -i 9 -a 0 -x {0.0 8.0 9 ------- null}
+ -t 0.1242 -s 3 -d 4 -p cbr -e 300 -c 0 -i 9 -a 0 -x {0.0 8.0 9 ------- null}
- -t 0.1242 -s 3 -d 4 -p cbr -e 300 -c 0 -i 9 -a 0 -x {0.0 8.0 9 ------- null}
h -t 0.1242 -s 3 -d 4 -p cbr -e 300 -c 0 -i 9 -a 0 -x {0.0 8.0 -1 ------- null}
r -t 0.1248 -s 3 -d 4 -p cbr -e 300 -c 0 -i 6 -a 0 -x {0.0 8.0 6 ------- null}
+ -t 0.1248 -s 4 -d 5 -p cbr -e 300 -c 0 -i 6 -a 0 -x {0.0 8.0 6 ------- null}
- -t 0.1248 -s 4 -d 5 -p cbr -e 300 -c 0 -i 6 -a 0 -x {0.0 8.0 6 ------- null}
h -t 0.1248 -s 4 -d 5 -p cbr -e 300 -c 0 -i 6 -a 0 -x {0.0 8.0 -1 ------- null}
r -t 0.125 -s 4 -d 5 -p cbr -e 300 -c 0 -i 3 -a 0 -x {0.0 8.0 3 ------- null}
+ -t 0.125 -s 5 -d 8 -p cbr -e 300 -c 0 -i 3 -a 0 -x {0.0 8.0 3 ------- null}
- -t 0.125 -s 5 -d 8 -p cbr -e 300 -c 0 -i 3 -a 0 -x {0.0 8.0 3 ------- null}
h -t 0.125 -s 5 -d 8 -p cbr -e 300 -c 0 -i 3 -a 0 -x {0.0 8.0 -1 ------- null}
r -t 0.1252 -s 5 -d 8 -p cbr -e 300 -c 0 -i 0 -a 0 -x {0.0 8.0 0 ------- null}
+ -t 0.126 -s 0 -d 3 -p cbr -e 300 -c 0 -i 13 -a 0 -x {0.0 8.0 13 ------- null}
- -t 0.126 -s 0 -d 3 -p cbr -e 300 -c 0 -i 13 -a 0 -x {0.0 8.0 13 ------- null}
h -t 0.126 -s 0 -d 3 -p cbr -e 300 -c 0 -i 13 -a 0 -x {0.0 8.0 -1 ------- null}
r -t 0.1262 -s 0 -d 3 -p cbr -e 300 -c 0 -i 10 -a 0 -x {0.0 8.0 10 ------- null}
+ -t 0.1262 -s 3 -d 4 -p cbr -e 300 -c 0 -i 10 -a 0 -x {0.0 8.0 10 ------- null}
- -t 0.1262 -s 3 -d 4 -p cbr -e 300 -c 0 -i 10 -a 0 -x {0.0 8.0 10 ------- null}
h -t 0.1262 -s 3 -d 4 -p cbr -e 300 -c 0 -i 10 -a 0 -x {0.0 8.0 -1 ------- null}
r -t 0.1268 -s 3 -d 4 -p cbr -e 300 -c 0 -i 7 -a 0 -x {0.0 8.0 7 ------- null}
+ -t 0.1268 -s 4 -d 5 -p cbr -e 300 -c 0 -i 7 -a 0 -x {0.0 8.0 7 ------- null}
- -t 0.1268 -s 4 -d 5 -p cbr -e 300 -c 0 -i 7 -a 0 -x {0.0 8.0 7 ------- null}
h -t 0.1268 -s 4 -d 5 -p cbr -e 300 -c 0 -i 7 -a 0 -x {0.0 8.0 -1 ------- null}
r -t 0.127 -s 4 -d 5 -p cbr -e 300 -c 0 -i 4 -a 0 -x {0.0 8.0 4 ------- null}
+ -t 0.127 -s 5 -d 8 -p cbr -e 300 -c 0 -i 4 -a 0 -x {0.0 8.0 4 ------- null}
- -t 0.127 -s 5 -d 8 -p cbr -e 300 -c 0 -i 4 -a 0 -x {0.0 8.0 4 ------- null}
h -t 0.127 -s 5 -d 8 -p cbr -e 300 -c 0 -i 4 -a 0 -x {0.0 8.0 -1 ------- null}
r -t 0.1272 -s 5 -d 8 -p cbr -e 300 -c 0 -i 1 -a 0 -x {0.0 8.0 1 ------- null}
+ -t 0.128 -s 0 -d 3 -p cbr -e 300 -c 0 -i 14 -a 0 -x {0.0 8.0 14 ------- null}
- -t 0.128 -s 0 -d 3 -p cbr -e 300 -c 0 -i 14 -a 0 -x {0.0 8.0 14 ------- null}
h -t 0.128 -s 0 -d 3 -p cbr -e 300 -c 0 -i 14 -a 0 -x {0.0 8.0 -1 ------- null}
r -t 0.1282 -s 0 -d 3 -p cbr -e 300 -c 0 -i 11 -a 0 -x {0.0 8.0 11 ------- null}
+ -t 0.1282 -s 3 -d 4 -p cbr -e 300 -c 0 -i 11 -a 0 -x {0.0 8.0 11 ------- null}
- -t 0.1282 -s 3 -d 4 -p cbr -e 300 -c 0 -i 11 -a 0 -x {0.0 8.0 11 ------- null}
h -t 0.1282 -s 3 -d 4 -p cbr -e 300 -c 0 -i 11 -a 0 -x {0.0 8.0 -1 ------- null}
r -t 0.1288 -s 3 -d 4 -p cbr -e 300 -c 0 -i 8 -a 0 -x {0.0 8.0 8 ------- null}
+ -t 0.1288 -s 4 -d 5 -p cbr -e 300 -c 0 -i 8 -a 0 -x {0.0 8.0 8 ------- null}
- -t 0.1288 -s 4 -d 5 -p cbr -e 300 -c 0 -i 8 -a 0 -x {0.0 8.0 8 ------- null}
h -t 0.1288 -s 4 -d 5 -p cbr -e 300 -c 0 -i 8 -a 0 -x {0.0 8.0 -1 ------- null}
r -t 0.129 -s 4 -d 5 -p cbr -e 300 -c 0 -i 5 -a 0 -x {0.0 8.0 5 ------- null}
+ -t 0.129 -s 5 -d 8 -p cbr -e 300 -c 0 -i 5 -a 0 -x {0.0 8.0 5 ------- null}
- -t 0.129 -s 5 -d 8 -p cbr -e 300 -c 0 -i 5 -a 0 -x {0.0 8.0 5 ------- null}
h -t 0.129 -s 5 -d 8 -p cbr -e 300 -c 0 -i 5 -a 0 -x {0.0 8.0 -1 ------- null}
r -t 0.1292 -s 5 -d 8 -p cbr -e 300 -c 0 -i 2 -a 0 -x {0.0 8.0 2 ------- null}
+ -t 0.13 -s 0 -d 3 -p cbr -e 300 -c 0 -i 15 -a 0 -x {0.0 8.0 15 ------- null}
- -t 0.13 -s 0 -d 3 -p cbr -e 300 -c 0 -i 15 -a 0 -x {0.0 8.0 15 ------- null}
h -t 0.13 -s 0 -d 3 -p cbr -e 300 -c 0 -i 15 -a 0 -x {0.0 8.0 -1 ------- null}
r -t 0.1302 -s 0 -d 3 -p cbr -e 300 -c 0 -i 12 -a 0 -x {0.0 8.0 12 ------- null}
+ -t 0.1302 -s 3 -d 4 -p cbr -e 300 -c 0 -i 12 -a 0 -x {0.0 8.0 12 ------- null}
- -t 0.1302 -s 3 -d 4 -p cbr -e 300 -c 0 -i 12 -a 0 -x {0.0 8.0 12 ------- null}
h -t 0.1302 -s 3 -d 4 -p cbr -e 300 -c 0 -i 12 -a 0 -x {0.0 8.0 -1 ------- null}
r -t 0.1308 -s 3 -d 4 -p cbr -e 300 -c 0 -i 9 -a 0 -x {0.0 8.0 9 ------- null}
+ -t 0.1308 -s 4 -d 5 -p cbr -e 300 -c 0 -i 9 -a 0 -x {0.0 8.0 9 ------- null}
- -t 0.1308 -s 4 -d 5 -p cbr -e 300 -c 0 -i 9 -a 0 -x {0.0 8.0 9 ------- null}
h -t 0.1308 -s 4 -d 5 -p cbr -e 300 -c 0 -i 9 -a 0 -x {0.0 8.0 -1 ------- null}
r -t 0.131 -s 4 -d 5 -p cbr -e 300 -c 0 -i 6 -a 0 -x {0.0 8.0 6 ------- null}
+ -t 0.131 -s 5 -d 8 -p cbr -e 300 -c 0 -i 6 -a 0 -x {0.0 8.0 6 ------- null}
- -t 0.131 -s 5 -d 8 -p cbr -e 300 -c 0 -i 6 -a 0 -x {0.0 8.0 6 ------- null}
h -t 0.131 -s 5 -d 8 -p cbr -e 300 -c 0 -i 6 -a 0 -x {0.0 8.0 -1 ------- null}
r -t 0.1312 -s 5 -d 8 -p cbr -e 300 -c 0 -i 3 -a 0 -x {0.0 8.0 3 ------- null}
+ -t 0.132 -s 0 -d 3 -p cbr -e 300 -c 0 -i 16 -a 0 -x {0.0 8.0 16 ------- null}
- -t 0.132 -s 0 -d 3 -p cbr -e 300 -c 0 -i 16 -a 0 -x {0.0 8.0 16 ------- null}
h -t 0.132 -s 0 -d 3 -p cbr -e 300 -c 0 -i 16 -a 0 -x {0.0 8.0 -1 ------- null}
r -t 0.1322 -s 0 -d 3 -p cbr -e 300 -c 0 -i 13 -a 0 -x {0.0 8.0 13 ------- null}
+ -t 0.1322 -s 3 -d 4 -p cbr -e 300 -c 0 -i 13 -a 0 -x {0.0 8.0 13 ------- null}
- -t 0.1322 -s 3 -d 4 -p cbr -e 300 -c 0 -i 13 -a 0 -x {0.0 8.0 13 ------- null}
h -t 0.1322 -s 3 -d 4 -p cbr -e 300 -c 0 -i 13 -a 0 -x {0.0 8.0 -1 ------- null}
r -t 0.1328 -s 3 -d 4 -p cbr -e 300 -c 0 -i 10 -a 0 -x {0.0 8.0 10 ------- null}
+ -t 0.1328 -s 4 -d 5 -p cbr -e 300 -c 0 -i 10 -a 0 -x {0.0 8.0 10 ------- null}
- -t 0.1328 -s 4 -d 5 -p cbr -e 300 -c 0 -i 10 -a 0 -x {0.0 8.0 10 ------- null}
h -t 0.1328 -s 4 -d 5 -p cbr -e 300 -c 0 -i 10 -a 0 -x {0.0 8.0 -1 ------- null}
r -t 0.133 -s 4 -d 5 -p cbr -e 300 -c 0 -i 7 -a 0 -x {0.0 8.0 7 ------- null}
+ -t 0.133 -s 5 -d 8 -p cbr -e 300 -c 0 -i 7 -a 0 -x {0.0 8.0 7 ------- null}
- -t 0.133 -s 5 -d 8 -p cbr -e 300 -c 0 -i 7 -a 0 -x {0.0 8.0 7 ------- null}
h -t 0.133 -s 5 -d 8 -p cbr -e 300 -c 0 -i 7 -a 0 -x {0.0 8.0 -1 ------- null}
r -t 0.1332 -s 5 -d 8 -p cbr -e 300 -c 0 -i 4 -a 0 -x {0.0 8.0 4 ------- null}
+ -t 0.134 -s 0 -d 3 -p cbr -e 300 -c 0 -i 17 -a 0 -x {0.0 8.0 17 ------- null}
- -t 0.134 -s 0 -d 3 -p cbr -e 300 -c 0 -i 17 -a 0 -x {0.0 8.0 17 ------- null}
h -t 0.134 -s 0 -d 3 -p cbr -e 300 -c 0 -i 17 -a 0 -x {0.0 8.0 -1 ------- null}
r -t 0.1342 -s 0 -d 3 -p cbr -e 300 -c 0 -i 14 -a 0 -x {0.0 8.0 14 ------- null}
+ -t 0.1342 -s 3 -d 4 -p cbr -e 300 -c 0 -i 14 -a 0 -x {0.0 8.0 14 ------- null}
- -t 0.1342 -s 3 -d 4 -p cbr -e 300 -c 0 -i 14 -a 0 -x {0.0 8.0 14 ------- null}
h -t 0.1342 -s 3 -d 4 -p cbr -e 300 -c 0 -i 14 -a 0 -x {0.0 8.0 -1 ------- null}
r -t 0.1348 -s 3 -d 4 -p cbr -e 300 -c 0 -i 11 -a 0 -x {0.0 8.0 11 ------- null}
+ -t 0.1348 -s 4 -d 5 -p cbr -e 300 -c 0 -i 11 -a 0 -x {0.0 8.0 11 ------- null}
- -t 0.1348 -s 4 -d 5 -p cbr -e 300 -c 0 -i 11 -a 0 -x {0.0 8.0 11 ------- null}
h -t 0.1348 -s 4 -d 5 -p cbr -e 300 -c 0 -i 11 -a 0 -x {0.0 8.0 -1 ------- null}
r -t 0.135 -s 4 -d 5 -p cbr -e 300 -c 0 -i 8 -a 0 -x {0.0 8.0 8 ------- null}
+ -t 0.135 -s 5 -d 8 -p cbr -e 300 -c 0 -i 8 -a 0 -x {0.0 8.0 8 ------- null}
- -t 0.135 -s 5 -d 8 -p cbr -e 300 -c 0 -i 8 -a 0 -x {0.0 8.0 8 ------- null}
h -t 0.135 -s 5 -d 8 -p cbr -e 300 -c 0 -i 8 -a 0 -x {0.0 8.0 -1 ------- null}
r -t 0.1352 -s 5 -d 8 -p cbr -e 300 -c 0 -i 5 -a 0 -x {0.0 8.0 5 ------- null}
+ -t 0.136 -s 0 -d 3 -p cbr -e 300 -c 0 -i 18 -a 0 -x {0.0 8.0 18 ------- null}
- -t 0.136 -s 0 -d 3 -p cbr -e 300 -c 0 -i 18 -a 0 -x {0.0 8.0 18 ------- null}
h -t 0.136 -s 0 -d 3 -p cbr -e 300 -c 0 -i 18 -a 0 -x {0.0 8.0 -1 ------- null}
r -t 0.1362 -s 0 -d 3 -p cbr -e 300 -c 0 -i 15 -a 0 -x {0.0 8.0 15 ------- null}
+ -t 0.1362 -s 3 -d 4 -p cbr -e 300 -c 0 -i 15 -a 0 -x {0.0 8.0 15 ------- null}
- -t 0.1362 -s 3 -d 4 -p cbr -e 300 -c 0 -i 15 -a 0 -x {0.0 8.0 15 ------- null}
h -t 0.1362 -s 3 -d 4 -p cbr -e 300 -c 0 -i 15 -a 0 -x {0.0 8.0 -1 ------- null}
r -t 0.1368 -s 3 -d 4 -p cbr -e 300 -c 0 -i 12 -a 0 -x {0.0 8.0 12 ------- null}
+ -t 0.1368 -s 4 -d 5 -p cbr -e 300 -c 0 -i 12 -a 0 -x {0.0 8.0 12 ------- null}
- -t 0.1368 -s 4 -d 5 -p cbr -e 300 -c 0 -i 12 -a 0 -x {0.0 8.0 12 ------- null}
h -t 0.1368 -s 4 -d 5 -p cbr -e 300 -c 0 -i 12 -a 0 -x {0.0 8.0 -1 ------- null}
r -t 0.137 -s 4 -d 5 -p cbr -e 300 -c 0 -i 9 -a 0 -x {0.0 8.0 9 ------- null}
+ -t 0.137 -s 5 -d 8 -p cbr -e 300 -c 0 -i 9 -a 0 -x {0.0 8.0 9 ------- null}
- -t 0.137 -s 5 -d 8 -p cbr -e 300 -c 0 -i 9 -a 0 -x {0.0 8.0 9 ------- null}
h -t 0.137 -s 5 -d 8 -p cbr -e 300 -c 0 -i 9 -a 0 -x {0.0 8.0 -1 ------- null}
r -t 0.1372 -s 5 -d 8 -p cbr -e 300 -c 0 -i 6 -a 0 -x {0.0 8.0 6 ------- null}
+ -t 0.138 -s 0 -d 3 -p cbr -e 300 -c 0 -i 19 -a 0 -x {0.0 8.0 19 ------- null}
- -t 0.138 -s 0 -d 3 -p cbr -e 300 -c 0 -i 19 -a 0 -x {0.0 8.0 19 ------- null}
h -t 0.138 -s 0 -d 3 -p cbr -e 300 -c 0 -i 19 -a 0 -x {0.0 8.0 -1 ------- null}
r -t 0.1382 -s 0 -d 3 -p cbr -e 300 -c 0 -i 16 -a 0 -x {0.0 8.0 16 ------- null}
+ -t 0.1382 -s 3 -d 4 -p cbr -e 300 -c 0 -i 16 -a 0 -x {0.0 8.0 16 ------- null}
- -t 0.1382 -s 3 -d 4 -p cbr -e 300 -c 0 -i 16 -a 0 -x {0.0 8.0 16 ------- null}
h -t 0.1382 -s 3 -d 4 -p cbr -e 300 -c 0 -i 16 -a 0 -x {0.0 8.0 -1 ------- null}
r -t 0.1388 -s 3 -d 4 -p cbr -e 300 -c 0 -i 13 -a 0 -x {0.0 8.0 13 ------- null}
+ -t 0.1388 -s 4 -d 5 -p cbr -e 300 -c 0 -i 13 -a 0 -x {0.0 8.0 13 ------- null}
- -t 0.1388 -s 4 -d 5 -p cbr -e 300 -c 0 -i 13 -a 0 -x {0.0 8.0 13 ------- null}
h -t 0.1388 -s 4 -d 5 -p cbr -e 300 -c 0 -i 13 -a 0 -x {0.0 8.0 -1 ------- null}
r -t 0.139 -s 4 -d 5 -p cbr -e 300 -c 0 -i 10 -a 0 -x {0.0 8.0 10 ------- null}
+ -t 0.139 -s 5 -d 8 -p cbr -e 300 -c 0 -i 10 -a 0 -x {0.0 8.0 10 ------- null}
- -t 0.139 -s 5 -d 8 -p cbr -e 300 -c 0 -i 10 -a 0 -x {0.0 8.0 10 ------- null}
h -t 0.139 -s 5 -d 8 -p cbr -e 300 -c 0 -i 10 -a 0 -x {0.0 8.0 -1 ------- null}
r -t 0.1392 -s 5 -d 8 -p cbr -e 300 -c 0 -i 7 -a 0 -x {0.0 8.0 7 ------- null}
+ -t 0.14 -s 0 -d 3 -p cbr -e 300 -c 0 -i 20 -a 0 -x {0.0 8.0 20 ------- null}
- -t 0.14 -s 0 -d 3 -p cbr -e 300 -c 0 -i 20 -a 0 -x {0.0 8.0 20 ------- null}
h -t 0.14 -s 0 -d 3 -p cbr -e 300 -c 0 -i 20 -a 0 -x {0.0 8.0 -1 ------- null}
r -t 0.1402 -s 0 -d 3 -p cbr -e 300 -c 0 -i 17 -a 0 -x {0.0 8.0 17 ------- null}
+ -t 0.1402 -s 3 -d 4 -p cbr -e 300 -c 0 -i 17 -a 0 -x {0.0 8.0 17 ------- null}
- -t 0.1402 -s 3 -d 4 -p cbr -e 300 -c 0 -i 17 -a 0 -x {0.0 8.0 17 ------- null}
h -t 0.1402 -s 3 -d 4 -p cbr -e 300 -c 0 -i 17 -a 0 -x {0.0 8.0 -1 ------- null}
r -t 0.1408 -s 3 -d 4 -p cbr -e 300 -c 0 -i 14 -a 0 -x {0.0 8.0 14 ------- null}
+ -t 0.1408 -s 4 -d 5 -p cbr -e 300 -c 0 -i 14 -a 0 -x {0.0 8.0 14 ------- null}
- -t 0.1408 -s 4 -d 5 -p cbr -e 300 -c 0 -i 14 -a 0 -x {0.0 8.0 14 ------- null}
h -t 0.1408 -s 4 -d 5 -p cbr -e 300 -c 0 -i 14 -a 0 -x {0.0 8.0 -1 ------- null}
r -t 0.141 -s 4 -d 5 -p cbr -e 300 -c 0 -i 11 -a 0 -x {0.0 8.0 11 ------- null}
+ -t 0.141 -s 5 -d 8 -p cbr -e 300 -c 0 -i 11 -a 0 -x {0.0 8.0 11 ------- null}
- -t 0.141 -s 5 -d 8 -p cbr -e 300 -c 0 -i 11 -a 0 -x {0.0 8.0 11 ------- null}
h -t 0.141 -s 5 -d 8 -p cbr -e 300 -c 0 -i 11 -a 0 -x {0.0 8.0 -1 ------- null}
r -t 0.1412 -s 5 -d 8 -p cbr -e 300 -c 0 -i 8 -a 0 -x {0.0 8.0 8 ------- null}
+ -t 0.142 -s 0 -d 3 -p cbr -e 300 -c 0 -i 21 -a 0 -x {0.0 8.0 21 ------- null}
- -t 0.142 -s 0 -d 3 -p cbr -e 300 -c 0 -i 21 -a 0 -x {0.0 8.0 21 ------- null}
h -t 0.142 -s 0 -d 3 -p cbr -e 300 -c 0 -i 21 -a 0 -x {0.0 8.0 -1 ------- null}
r -t 0.1422 -s 0 -d 3 -p cbr -e 300 -c 0 -i 18 -a 0 -x {0.0 8.0 18 ------- null}
+ -t 0.1422 -s 3 -d 4 -p cbr -e 300 -c 0 -i 18 -a 0 -x {0.0 8.0 18 ------- null}
- -t 0.1422 -s 3 -d 4 -p cbr -e 300 -c 0 -i 18 -a 0 -x {0.0 8.0 18 ------- null}
h -t 0.1422 -s 3 -d 4 -p cbr -e 300 -c 0 -i 18 -a 0 -x {0.0 8.0 -1 ------- null}
r -t 0.1428 -s 3 -d 4 -p cbr -e 300 -c 0 -i 15 -a 0 -x {0.0 8.0 15 ------- null}
+ -t 0.1428 -s 4 -d 5 -p cbr -e 300 -c 0 -i 15 -a 0 -x {0.0 8.0 15 ------- null}
- -t 0.1428 -s 4 -d 5 -p cbr -e 300 -c 0 -i 15 -a 0 -x {0.0 8.0 15 ------- null}
h -t 0.1428 -s 4 -d 5 -p cbr -e 300 -c 0 -i 15 -a 0 -x {0.0 8.0 -1 ------- null}
r -t 0.143 -s 4 -d 5 -p cbr -e 300 -c 0 -i 12 -a 0 -x {0.0 8.0 12 ------- null}
+ -t 0.143 -s 5 -d 8 -p cbr -e 300 -c 0 -i 12 -a 0 -x {0.0 8.0 12 ------- null}
- -t 0.143 -s 5 -d 8 -p cbr -e 300 -c 0 -i 12 -a 0 -x {0.0 8.0 12 ------- null}
h -t 0.143 -s 5 -d 8 -p cbr -e 300 -c 0 -i 12 -a 0 -x {0.0 8.0 -1 ------- null}
r -t 0.1432 -s 5 -d 8 -p cbr -e 300 -c 0 -i 9 -a 0 -x {0.0 8.0 9 ------- null}
+ -t 0.144 -s 0 -d 3 -p cbr -e 300 -c 0 -i 22 -a 0 -x {0.0 8.0 22 ------- null}
- -t 0.144 -s 0 -d 3 -p cbr -e 300 -c 0 -i 22 -a 0 -x {0.0 8.0 22 ------- null}
h -t 0.144 -s 0 -d 3 -p cbr -e 300 -c 0 -i 22 -a 0 -x {0.0 8.0 -1 ------- null}
r -t 0.1442 -s 0 -d 3 -p cbr -e 300 -c 0 -i 19 -a 0 -x {0.0 8.0 19 ------- null}
+ -t 0.1442 -s 3 -d 4 -p cbr -e 300 -c 0 -i 19 -a 0 -x {0.0 8.0 19 ------- null}
- -t 0.1442 -s 3 -d 4 -p cbr -e 300 -c 0 -i 19 -a 0 -x {0.0 8.0 19 ------- null}
h -t 0.1442 -s 3 -d 4 -p cbr -e 300 -c 0 -i 19 -a 0 -x {0.0 8.0 -1 ------- null}
r -t 0.1448 -s 3 -d 4 -p cbr -e 300 -c 0 -i 16 -a 0 -x {0.0 8.0 16 ------- null}
+ -t 0.1448 -s 4 -d 5 -p cbr -e 300 -c 0 -i 16 -a 0 -x {0.0 8.0 16 ------- null}
- -t 0.1448 -s 4 -d 5 -p cbr -e 300 -c 0 -i 16 -a 0 -x {0.0 8.0 16 ------- null}
h -t 0.1448 -s 4 -d 5 -p cbr -e 300 -c 0 -i 16 -a 0 -x {0.0 8.0 -1 ------- null}
r -t 0.145 -s 4 -d 5 -p cbr -e 300 -c 0 -i 13 -a 0 -x {0.0 8.0 13 ------- null}
+ -t 0.145 -s 5 -d 8 -p cbr -e 300 -c 0 -i 13 -a 0 -x {0.0 8.0 13 ------- null}
- -t 0.145 -s 5 -d 8 -p cbr -e 300 -c 0 -i 13 -a 0 -x {0.0 8.0 13 ------- null}
h -t 0.145 -s 5 -d 8 -p cbr -e 300 -c 0 -i 13 -a 0 -x {0.0 8.0 -1 ------- null}
r -t 0.1452 -s 5 -d 8 -p cbr -e 300 -c 0 -i 10 -a 0 -x {0.0 8.0 10 ------- null}
+ -t 0.146 -s 0 -d 3 -p cbr -e 300 -c 0 -i 23 -a 0 -x {0.0 8.0 23 ------- null}
- -t 0.146 -s 0 -d 3 -p cbr -e 300 -c 0 -i 23 -a 0 -x {0.0 8.0 23 ------- null}
h -t 0.146 -s 0 -d 3 -p cbr -e 300 -c 0 -i 23 -a 0 -x {0.0 8.0 -1 ------- null}
r -t 0.1462 -s 0 -d 3 -p cbr -e 300 -c 0 -i 20 -a 0 -x {0.0 8.0 20 ------- null}
+ -t 0.1462 -s 3 -d 4 -p cbr -e 300 -c 0 -i 20 -a 0 -x {0.0 8.0 20 ------- null}
- -t 0.1462 -s 3 -d 4 -p cbr -e 300 -c 0 -i 20 -a 0 -x {0.0 8.0 20 ------- null}
h -t 0.1462 -s 3 -d 4 -p cbr -e 300 -c 0 -i 20 -a 0 -x {0.0 8.0 -1 ------- null}
r -t 0.1468 -s 3 -d 4 -p cbr -e 300 -c 0 -i 17 -a 0 -x {0.0 8.0 17 ------- null}
+ -t 0.1468 -s 4 -d 5 -p cbr -e 300 -c 0 -i 17 -a 0 -x {0.0 8.0 17 ------- null}
- -t 0.1468 -s 4 -d 5 -p cbr -e 300 -c 0 -i 17 -a 0 -x {0.0 8.0 17 ------- null}
h -t 0.1468 -s 4 -d 5 -p cbr -e 300 -c 0 -i 17 -a 0 -x {0.0 8.0 -1 ------- null}
r -t 0.147 -s 4 -d 5 -p cbr -e 300 -c 0 -i 14 -a 0 -x {0.0 8.0 14 ------- null}
+ -t 0.147 -s 5 -d 8 -p cbr -e 300 -c 0 -i 14 -a 0 -x {0.0 8.0 14 ------- null}
- -t 0.147 -s 5 -d 8 -p cbr -e 300 -c 0 -i 14 -a 0 -x {0.0 8.0 14 ------- null}
h -t 0.147 -s 5 -d 8 -p cbr -e 300 -c 0 -i 14 -a 0 -x {0.0 8.0 -1 ------- null}
r -t 0.1472 -s 5 -d 8 -p cbr -e 300 -c 0 -i 11 -a 0 -x {0.0 8.0 11 ------- null}
+ -t 0.148 -s 0 -d 3 -p cbr -e 300 -c 0 -i 24 -a 0 -x {0.0 8.0 24 ------- null}
- -t 0.148 -s 0 -d 3 -p cbr -e 300 -c 0 -i 24 -a 0 -x {0.0 8.0 24 ------- null}
h -t 0.148 -s 0 -d 3 -p cbr -e 300 -c 0 -i 24 -a 0 -x {0.0 8.0 -1 ------- null}
r -t 0.1482 -s 0 -d 3 -p cbr -e 300 -c 0 -i 21 -a 0 -x {0.0 8.0 21 ------- null}
+ -t 0.1482 -s 3 -d 4 -p cbr -e 300 -c 0 -i 21 -a 0 -x {0.0 8.0 21 ------- null}
- -t 0.1482 -s 3 -d 4 -p cbr -e 300 -c 0 -i 21 -a 0 -x {0.0 8.0 21 ------- null}
h -t 0.1482 -s 3 -d 4 -p cbr -e 300 -c 0 -i 21 -a 0 -x {0.0 8.0 -1 ------- null}
r -t 0.1488 -s 3 -d 4 -p cbr -e 300 -c 0 -i 18 -a 0 -x {0.0 8.0 18 ------- null}
+ -t 0.1488 -s 4 -d 5 -p cbr -e 300 -c 0 -i 18 -a 0 -x {0.0 8.0 18 ------- null}
- -t 0.1488 -s 4 -d 5 -p cbr -e 300 -c 0 -i 18 -a 0 -x {0.0 8.0 18 ------- null}
h -t 0.1488 -s 4 -d 5 -p cbr -e 300 -c 0 -i 18 -a 0 -x {0.0 8.0 -1 ------- null}
r -t 0.149 -s 4 -d 5 -p cbr -e 300 -c 0 -i 15 -a 0 -x {0.0 8.0 15 ------- null}
+ -t 0.149 -s 5 -d 8 -p cbr -e 300 -c 0 -i 15 -a 0 -x {0.0 8.0 15 ------- null}
- -t 0.149 -s 5 -d 8 -p cbr -e 300 -c 0 -i 15 -a 0 -x {0.0 8.0 15 ------- null}
h -t 0.149 -s 5 -d 8 -p cbr -e 300 -c 0 -i 15 -a 0 -x {0.0 8.0 -1 ------- null}
r -t 0.1492 -s 5 -d 8 -p cbr -e 300 -c 0 -i 12 -a 0 -x {0.0 8.0 12 ------- null}
+ -t 0.15 -s 0 -d 3 -p cbr -e 300 -c 0 -i 25 -a 0 -x {0.0 8.0 25 ------- null}
- -t 0.15 -s 0 -d 3 -p cbr -e 300 -c 0 -i 25 -a 0 -x {0.0 8.0 25 ------- null}
h -t 0.15 -s 0 -d 3 -p cbr -e 300 -c 0 -i 25 -a 0 -x {0.0 8.0 -1 ------- null}
r -t 0.1502 -s 0 -d 3 -p cbr -e 300 -c 0 -i 22 -a 0 -x {0.0 8.0 22 ------- null}
+ -t 0.1502 -s 3 -d 4 -p cbr -e 300 -c 0 -i 22 -a 0 -x {0.0 8.0 22 ------- null}
- -t 0.1502 -s 3 -d 4 -p cbr -e 300 -c 0 -i 22 -a 0 -x {0.0 8.0 22 ------- null}
h -t 0.1502 -s 3 -d 4 -p cbr -e 300 -c 0 -i 22 -a 0 -x {0.0 8.0 -1 ------- null}
r -t 0.1508 -s 3 -d 4 -p cbr -e 300 -c 0 -i 19 -a 0 -x {0.0 8.0 19 ------- null}
+ -t 0.1508 -s 4 -d 5 -p cbr -e 300 -c 0 -i 19 -a 0 -x {0.0 8.0 19 ------- null}
- -t 0.1508 -s 4 -d 5 -p cbr -e 300 -c 0 -i 19 -a 0 -x {0.0 8.0 19 ------- null}
h -t 0.1508 -s 4 -d 5 -p cbr -e 300 -c 0 -i 19 -a 0 -x {0.0 8.0 -1 ------- null}
r -t 0.151 -s 4 -d 5 -p cbr -e 300 -c 0 -i 16 -a 0 -x {0.0 8.0 16 ------- null}
+ -t 0.151 -s 5 -d 8 -p cbr -e 300 -c 0 -i 16 -a 0 -x {0.0 8.0 16 ------- null}
- -t 0.151 -s 5 -d 8 -p cbr -e 300 -c 0 -i 16 -a 0 -x {0.0 8.0 16 ------- null}
h -t 0.151 -s 5 -d 8 -p cbr -e 300 -c 0 -i 16 -a 0 -x {0.0 8.0 -1 ------- null}
r -t 0.1512 -s 5 -d 8 -p cbr -e 300 -c 0 -i 13 -a 0 -x {0.0 8.0 13 ------- null}
+ -t 0.152 -s 0 -d 3 -p cbr -e 300 -c 0 -i 26 -a 0 -x {0.0 8.0 26 ------- null}
- -t 0.152 -s 0 -d 3 -p cbr -e 300 -c 0 -i 26 -a 0 -x {0.0 8.0 26 ------- null}
h -t 0.152 -s 0 -d 3 -p cbr -e 300 -c 0 -i 26 -a 0 -x {0.0 8.0 -1 ------- null}
r -t 0.1522 -s 0 -d 3 -p cbr -e 300 -c 0 -i 23 -a 0 -x {0.0 8.0 23 ------- null}
+ -t 0.1522 -s 3 -d 4 -p cbr -e 300 -c 0 -i 23 -a 0 -x {0.0 8.0 23 ------- null}
- -t 0.1522 -s 3 -d 4 -p cbr -e 300 -c 0 -i 23 -a 0 -x {0.0 8.0 23 ------- null}
h -t 0.1522 -s 3 -d 4 -p cbr -e 300 -c 0 -i 23 -a 0 -x {0.0 8.0 -1 ------- null}
r -t 0.1528 -s 3 -d 4 -p cbr -e 300 -c 0 -i 20 -a 0 -x {0.0 8.0 20 ------- null}
+ -t 0.1528 -s 4 -d 5 -p cbr -e 300 -c 0 -i 20 -a 0 -x {0.0 8.0 20 ------- null}
- -t 0.1528 -s 4 -d 5 -p cbr -e 300 -c 0 -i 20 -a 0 -x {0.0 8.0 20 ------- null}
h -t 0.1528 -s 4 -d 5 -p cbr -e 300 -c 0 -i 20 -a 0 -x {0.0 8.0 -1 ------- null}
r -t 0.153 -s 4 -d 5 -p cbr -e 300 -c 0 -i 17 -a 0 -x {0.0 8.0 17 ------- null}
+ -t 0.153 -s 5 -d 8 -p cbr -e 300 -c 0 -i 17 -a 0 -x {0.0 8.0 17 ------- null}
- -t 0.153 -s 5 -d 8 -p cbr -e 300 -c 0 -i 17 -a 0 -x {0.0 8.0 17 ------- null}
h -t 0.153 -s 5 -d 8 -p cbr -e 300 -c 0 -i 17 -a 0 -x {0.0 8.0 -1 ------- null}
r -t 0.1532 -s 5 -d 8 -p cbr -e 300 -c 0 -i 14 -a 0 -x {0.0 8.0 14 ------- null}
+ -t 0.154 -s 0 -d 3 -p cbr -e 300 -c 0 -i 27 -a 0 -x {0.0 8.0 27 ------- null}
- -t 0.154 -s 0 -d 3 -p cbr -e 300 -c 0 -i 27 -a 0 -x {0.0 8.0 27 ------- null}
h -t 0.154 -s 0 -d 3 -p cbr -e 300 -c 0 -i 27 -a 0 -x {0.0 8.0 -1 ------- null}
r -t 0.1542 -s 0 -d 3 -p cbr -e 300 -c 0 -i 24 -a 0 -x {0.0 8.0 24 ------- null}
+ -t 0.1542 -s 3 -d 4 -p cbr -e 300 -c 0 -i 24 -a 0 -x {0.0 8.0 24 ------- null}
- -t 0.1542 -s 3 -d 4 -p cbr -e 300 -c 0 -i 24 -a 0 -x {0.0 8.0 24 ------- null}
h -t 0.1542 -s 3 -d 4 -p cbr -e 300 -c 0 -i 24 -a 0 -x {0.0 8.0 -1 ------- null}
r -t 0.1548 -s 3 -d 4 -p cbr -e 300 -c 0 -i 21 -a 0 -x {0.0 8.0 21 ------- null}