V -t * -v 1.0a5 -a 0
A -t * -n 1 -p 0 -o 0x7fffffff -c 30 -a 1
A -t * -h 1 -m 1073741823 -s 0
n -t * -a 8 -s 8 -S UP -v circle -c black -i black
n -t * -a 4 -s 4 -S UP -v circle -c black -i black
n -t * -a 0 -s 0 -S UP -v circle -c black -i black
n -t * -a 10 -s 10 -S UP -v circle -c black -i black
n -t * -a 9 -s 9 -S UP -v circle -c black -i black
n -t * -a 5 -s 5 -S UP -v circle -c black -i black
n -t * -a 1 -s 1 -S UP -v circle -c black -i black
n -t * -a 6 -s 6 -S UP -v circle -c black -i black
n -t * -a 2 -s 2 -S UP -v circle -c black -i black
n -t * -a 7 -s 7 -S UP -v circle -c black -i black
n -t * -a 3 -s 3 -S UP -v circle -c black -i black
l -t * -s 3 -d 0 -S UP -r 2000000 -D 0.0050000000000000001 -c black -o left-up
l -t * -s 3 -d 1 -S UP -r 2000000 -D 0.0050000000000000001 -c black -o left
l -t * -s 3 -d 2 -S UP -r 2000000 -D 0.0050000000000000001 -c black -o left-down
l -t * -s 3 -d 4 -S UP -r 1000000 -D 0.0050000000000000001 -c black -o right-up
l -t * -s 3 -d 6 -S UP -r 2000000 -D 0.0050000000000000001 -c black -o right-down
l -t * -s 4 -d 5 -S UP -r 2000000 -D 0.0050000000000000001 -c black -o right
l -t * -s 5 -d 8 -S UP -r 2000000 -D 0.0050000000000000001 -c black -o right
l -t * -s 6 -d 7 -S UP -r 2000000 -D 0.0050000000000000001 -c black -o right
l -t * -s 5 -d 7 -S UP -r 2000000 -D 0.0050000000000000001 -c black -o down
l -t * -s 7 -d 9 -S UP -r 2000000 -D 0.0050000000000000001 -c black -o right
l -t * -s 7 -d 10 -S UP -r 2000000 -D 0.0050000000000000001 -c black -o down
+ -t 0.1 -s 0 -d 3 -p cbr -e 300 -c 0 -i 0 -a 0 -x {0.0 8.0 0 ------- null}
- -t 0.1 -s 0 -d 3 -p cbr -e 300 -c 0 -i 0 -a 0 -x {0.0 8.0 0 ------- null}
h -t 0.1 -s 0 -d 3 -p cbr -e 300 -c 0 -i 0 -a 0 -x {0.0 8.0 -1 ------- null}
+ -t 0.105 -s 0 -d 3 -p cbr -e 300 -c 0 -i 1 -a 0 -x {0.0 8.0 1 ------- null}
- -t 0.105 -s 0 -d 3 -p cbr -e 300 -c 0 -i 1 -a 0 -x {0.0 8.0 1 ------- null}
h -t 0.105 -s 0 -d 3 -p cbr -e 300 -c 0 -i 1 -a 0 -x {0.0 8.0 -1 ------- null}
r -t 0.1062 -s 0 -d 3 -p cbr -e 300 -c 0 -i 0 -a 0 -x {0.0 8.0 0 ------- null}
+ -t 0.1062 -s 3 -d 4 -p cbr -e 300 -c 0 -i 0 -a 0 -x {0.0 8.0 0 ------- null}
- -t 0.1062 -s 3 -d 4 -p cbr -e 300 -c 0 -i 0 -a 0 -x {0.0 8.0 0 ------- null}
h -t 0.1062 -s 3 -d 4 -p cbr -e 300 -c 0 -i 0 -a 0 -x {0.0 8.0 -1 ------- null}
+ -t 0.11 -s 0 -d 3 -p cbr -e 300 -c 0 -i 2 -a 0 -x {0.0 8.0 2 ------- null}
- -t 0.11 -s 0 -d 3 -p cbr -e 300 -c 0 -i 2 -a 0 -x {0.0 8.0 2 ------- null}
h -t 0.11 -s 0 -d 3 -p cbr -e 300 -c 0 -i 2 -a 0 -x {0.0 8.0 -1 ------- null}
r -t 0.1112 -s 0 -d 3 -p cbr -e 300 -c 0 -i 1 -a 0 -x {0.0 8.0 1 ------- null}
+ -t 0.1112 -s 3 -d 4 -p cbr -e 300 -c 0 -i 1 -a 0 -x {0.0 8.0 1 ------- null}
- -t 0.1112 -s 3 -d 4 -p cbr -e 300 -c 0 -i 1 -a 0 -x {0.0 8.0 1 ------- null}
h -t 0.1112 -s 3 -d 4 -p cbr -e 300 -c 0 -i 1 -a 0 -x {0.0 8.0 -1 ------- null}
r -t 0.1136 -s 3 -d 4 -p cbr -e 300 -c 0 -i 0 -a 0 -x {0.0 8.0 0 ------- null}
+ -t 0.1136 -s 4 -d 5 -p cbr -e 300 -c 0 -i 0 -a 0 -x {0.0 8.0 0 ------- null}
- -t 0.1136 -s 4 -d 5 -p cbr -e 300 -c 0 -i 0 -a 0 -x {0.0 8.0 0 ------- null}
h -t 0.1136 -s 4 -d 5 -p cbr -e 300 -c 0 -i 0 -a 0 -x {0.0 8.0 -1 ------- null}
+ -t 0.115 -s 0 -d 3 -p cbr -e 300 -c 0 -i 3 -a 0 -x {0.0 8.0 3 ------- null}
- -t 0.115 -s 0 -d 3 -p cbr -e 300 -c 0 -i 3 -a 0 -x {0.0 8.0 3 ------- null}
h -t 0.115 -s 0 -d 3 -p cbr -e 300 -c 0 -i 3 -a 0 -x {0.0 8.0 -1 ------- null}
r -t 0.1162 -s 0 -d 3 -p cbr -e 300 -c 0 -i 2 -a 0 -x {0.0 8.0 2 ------- null}
+ -t 0.1162 -s 3 -d 4 -p cbr -e 300 -c 0 -i 2 -a 0 -x {0.0 8.0 2 ------- null}
- -t 0.1162 -s 3 -d 4 -p cbr -e 300 -c 0 -i 2 -a 0 -x {0.0 8.0 2 ------- null}
h -t 0.1162 -s 3 -d 4 -p cbr -e 300 -c 0 -i 2 -a 0 -x {0.0 8.0 -1 ------- null}
r -t 0.1186 -s 3 -d 4 -p cbr -e 300 -c 0 -i 1 -a 0 -x {0.0 8.0 1 ------- null}
+ -t 0.1186 -s 4 -d 5 -p cbr -e 300 -c 0 -i 1 -a 0 -x {0.0 8.0 1 ------- null}
- -t 0.1186 -s 4 -d 5 -p cbr -e 300 -c 0 -i 1 -a 0 -x {0.0 8.0 1 ------- null}
h -t 0.1186 -s 4 -d 5 -p cbr -e 300 -c 0 -i 1 -a 0 -x {0.0 8.0 -1 ------- null}
r -t 0.1198 -s 4 -d 5 -p cbr -e 300 -c 0 -i 0 -a 0 -x {0.0 8.0 0 ------- null}
+ -t 0.1198 -s 5 -d 8 -p cbr -e 300 -c 0 -i 0 -a 0 -x {0.0 8.0 0 ------- null}
- -t 0.1198 -s 5 -d 8 -p cbr -e 300 -c 0 -i 0 -a 0 -x {0.0 8.0 0 ------- null}
h -t 0.1198 -s 5 -d 8 -p cbr -e 300 -c 0 -i 0 -a 0 -x {0.0 8.0 -1 ------- null}
+ -t 0.12 -s 0 -d 3 -p cbr -e 300 -c 0 -i 4 -a 0 -x {0.0 8.0 4 ------- null}
- -t 0.12 -s 0 -d 3 -p cbr -e 300 -c 0 -i 4 -a 0 -x {0.0 8.0 4 ------- null}
h -t 0.12 -s 0 -d 3 -p cbr -e 300 -c 0 -i 4 -a 0 -x {0.0 8.0 -1 ------- null}
r -t 0.1212 -s 0 -d 3 -p cbr -e 300 -c 0 -i 3 -a 0 -x {0.0 8.0 3 ------- null}
+ -t 0.1212 -s 3 -d 4 -p cbr -e 300 -c 0 -i 3 -a 0 -x {0.0 8.0 3 ------- null}
- -t 0.1212 -s 3 -d 4 -p cbr -e 300 -c 0 -i 3 -a 0 -x {0.0 8.0 3 ------- null}
h -t 0.1212 -s 3 -d 4 -p cbr -e 300 -c 0 -i 3 -a 0 -x {0.0 8.0 -1 ------- null}
r -t 0.1236 -s 3 -d 4 -p cbr -e 300 -c 0 -i 2 -a 0 -x {0.0 8.0 2 ------- null}
+ -t 0.1236 -s 4 -d 5 -p cbr -e 300 -c 0 -i 2 -a 0 -x {0.0 8.0 2 ------- null}
- -t 0.1236 -s 4 -d 5 -p cbr -e 300 -c 0 -i 2 -a 0 -x {0.0 8.0 2 ------- null}
h -t 0.1236 -s 4 -d 5 -p cbr -e 300 -c 0 -i 2 -a 0 -x {0.0 8.0 -1 ------- null}
r -t 0.1248 -s 4 -d 5 -p cbr -e 300 -c 0 -i 1 -a 0 -x {0.0 8.0 1 ------- null}
+ -t 0.1248 -s 5 -d 8 -p cbr -e 300 -c 0 -i 1 -a 0 -x {0.0 8.0 1 ------- null}
- -t 0.1248 -s 5 -d 8 -p cbr -e 300 -c 0 -i 1 -a 0 -x {0.0 8.0 1 ------- null}
h -t 0.1248 -s 5 -d 8 -p cbr -e 300 -c 0 -i 1 -a 0 -x {0.0 8.0 -1 ------- null}
+ -t 0.125 -s 0 -d 3 -p cbr -e 300 -c 0 -i 5 -a 0 -x {0.0 8.0 5 ------- null}
- -t 0.125 -s 0 -d 3 -p cbr -e 300 -c 0 -i 5 -a 0 -x {0.0 8.0 5 ------- null}
h -t 0.125 -s 0 -d 3 -p cbr -e 300 -c 0 -i 5 -a 0 -x {0.0 8.0 -1 ------- null}
r -t 0.126 -s 5 -d 8 -p cbr -e 300 -c 0 -i 0 -a 0 -x {0.0 8.0 0 ------- null}
r -t 0.1262 -s 0 -d 3 -p cbr -e 300 -c 0 -i 4 -a 0 -x {0.0 8.0 4 ------- null}
+ -t 0.1262 -s 3 -d 4 -p cbr -e 300 -c 0 -i 4 -a 0 -x {0.0 8.0 4 ------- null}
- -t 0.1262 -s 3 -d 4 -p cbr -e 300 -c 0 -i 4 -a 0 -x {0.0 8.0 4 ------- null}
h -t 0.1262 -s 3 -d 4 -p cbr -e 300 -c 0 -i 4 -a 0 -x {0.0 8.0 -1 ------- null}
r -t 0.1286 -s 3 -d 4 -p cbr -e 300 -c 0 -i 3 -a 0 -x {0.0 8.0 3 ------- null}
+ -t 0.1286 -s 4 -d 5 -p cbr -e 300 -c 0 -i 3 -a 0 -x {0.0 8.0 3 ------- null}
- -t 0.1286 -s 4 -d 5 -p cbr -e 300 -c 0 -i 3 -a 0 -x {0.0 8.0 3 ------- null}
h -t 0.1286 -s 4 -d 5 -p cbr -e 300 -c 0 -i 3 -a 0 -x {0.0 8.0 -1 ------- null}
r -t 0.1298 -s 4 -d 5 -p cbr -e 300 -c 0 -i 2 -a 0 -x {0.0 8.0 2 ------- null}
+ -t 0.1298 -s 5 -d 8 -p cbr -e 300 -c 0 -i 2 -a 0 -x {0.0 8.0 2 ------- null}
- -t 0.1298 -s 5 -d 8 -p cbr -e 300 -c 0 -i 2 -a 0 -x {0.0 8.0 2 ------- null}
h -t 0.1298 -s 5 -d 8 -p cbr -e 300 -c 0 -i 2 -a 0 -x {0.0 8.0 -1 ------- null}
+ -t 0.13 -s 0 -d 3 -p cbr -e 300 -c 0 -i 6 -a 0 -x {0.0 8.0 6 ------- null}
- -t 0.13 -s 0 -d 3 -p cbr -e 300 -c 0 -i 6 -a 0 -x {0.0 8.0 6 ------- null}
h -t 0.13 -s 0 -d 3 -p cbr -e 300 -c 0 -i 6 -a 0 -x {0.0 8.0 -1 ------- null}
r -t 0.131 -s 5 -d 8 -p cbr -e 300 -c 0 -i 1 -a 0 -x {0.0 8.0 1 ------- null}
r -t 0.1312 -s 0 -d 3 -p cbr -e 300 -c 0 -i 5 -a 0 -x {0.0 8.0 5 ------- null}
+ -t 0.1312 -s 3 -d 4 -p cbr -e 300 -c 0 -i 5 -a 0 -x {0.0 8.0 5 ------- null}
- -t 0.1312 -s 3 -d 4 -p cbr -e 300 -c 0 -i 5 -a 0 -x {0.0 8.0 5 ------- null}
h -t 0.1312 -s 3 -d 4 -p cbr -e 300 -c 0 -i 5 -a 0 -x {0.0 8.0 -1 ------- null}
r -t 0.1336 -s 3 -d 4 -p cbr -e 300 -c 0 -i 4 -a 0 -x {0.0 8.0 4 ------- null}
+ -t 0.1336 -s 4 -d 5 -p cbr -e 300 -c 0 -i 4 -a 0 -x {0.0 8.0 4 ------- null}
- -t 0.1336 -s 4 -d 5 -p cbr -e 300 -c 0 -i 4 -a 0 -x {0.0 8.0 4 ------- null}
h -t 0.1336 -s 4 -d 5 -p cbr -e 300 -c 0 -i 4 -a 0 -x {0.0 8.0 -1 ------- null}
r -t 0.1348 -s 4 -d 5 -p cbr -e 300 -c 0 -i 3 -a 0 -x {0.0 8.0 3 ------- null}
+ -t 0.1348 -s 5 -d 8 -p cbr -e 300 -c 0 -i 3 -a 0 -x {0.0 8.0 3 ------- null}
- -t 0.1348 -s 5 -d 8 -p cbr -e 300 -c 0 -i 3 -a 0 -x {0.0 8.0 3 ------- null}
h -t 0.1348 -s 5 -d 8 -p cbr -e 300 -c 0 -i 3 -a 0 -x {0.0 8.0 -1 ------- null}
+ -t 0.135 -s 0 -d 3 -p cbr -e 300 -c 0 -i 7 -a 0 -x {0.0 8.0 7 ------- null}
- -t 0.135 -s 0 -d 3 -p cbr -e 300 -c 0 -i 7 -a 0 -x {0.0 8.0 7 ------- null}
h -t 0.135 -s 0 -d 3 -p cbr -e 300 -c 0 -i 7 -a 0 -x {0.0 8.0 -1 ------- null}
r -t 0.136 -s 5 -d 8 -p cbr -e 300 -c 0 -i 2 -a 0 -x {0.0 8.0 2 ------- null}
r -t 0.1362 -s 0 -d 3 -p cbr -e 300 -c 0 -i 6 -a 0 -x {0.0 8.0 6 ------- null}
+ -t 0.1362 -s 3 -d 4 -p cbr -e 300 -c 0 -i 6 -a 0 -x {0.0 8.0 6 ------- null}
- -t 0.1362 -s 3 -d 4 -p cbr -e 300 -c 0 -i 6 -a 0 -x {0.0 8.0 6 ------- null}
h -t 0.1362 -s 3 -d 4 -p cbr -e 300 -c 0 -i 6 -a 0 -x {0.0 8.0 -1 ------- null}
r -t 0.1386 -s 3 -d 4 -p cbr -e 300 -c 0 -i 5 -a 0 -x {0.0 8.0 5 ------- null}
+ -t 0.1386 -s 4 -d 5 -p cbr -e 300 -c 0 -i 5 -a 0 -x {0.0 8.0 5 ------- null}
- -t 0.1386 -s 4 -d 5 -p cbr -e 300 -c 0 -i 5 -a 0 -x {0.0 8.0 5 ------- null}
h -t 0.1386 -s 4 -d 5 -p cbr -e 300 -c 0 -i 5 -a 0 -x {0.0 8.0 -1 ------- null}
r -t 0.1398 -s 4 -d 5 -p cbr -e 300 -c 0 -i 4 -a 0 -x {0.0 8.0 4 ------- null}
+ -t 0.1398 -s 5 -d 8 -p cbr -e 300 -c 0 -i 4 -a 0 -x {0.0 8.0 4 ------- null}
- -t 0.1398 -s 5 -d 8 -p cbr -e 300 -c 0 -i 4 -a 0 -x {0.0 8.0 4 ------- null}
h -t 0.1398 -s 5 -d 8 -p cbr -e 300 -c 0 -i 4 -a 0 -x {0.0 8.0 -1 ------- null}
+ -t 0.14 -s 0 -d 3 -p cbr -e 300 -c 0 -i 8 -a 0 -x {0.0 8.0 8 ------- null}
- -t 0.14 -s 0 -d 3 -p cbr -e 300 -c 0 -i 8 -a 0 -x {0.0 8.0 8 ------- null}
h -t 0.14 -s 0 -d 3 -p cbr -e 300 -c 0 -i 8 -a 0 -x {0.0 8.0 -1 ------- null}
r -t 0.141 -s 5 -d 8 -p cbr -e 300 -c 0 -i 3 -a 0 -x {0.0 8.0 3 ------- null}
r -t 0.1412 -s 0 -d 3 -p cbr -e 300 -c 0 -i 7 -a 0 -x {0.0 8.0 7 ------- null}
+ -t 0.1412 -s 3 -d 4 -p cbr -e 300 -c 0 -i 7 -a 0 -x {0.0 8.0 7 ------- null}
- -t 0.1412 -s 3 -d 4 -p cbr -e 300 -c 0 -i 7 -a 0 -x {0.0 8.0 7 ------- null}
h -t 0.1412 -s 3 -d 4 -p cbr -e 300 -c 0 -i 7 -a 0 -x {0.0 8.0 -1 ------- null}
r -t 0.1436 -s 3 -d 4 -p cbr -e 300 -c 0 -i 6 -a 0 -x {0.0 8.0 6 ------- null}
+ -t 0.1436 -s 4 -d 5 -p cbr -e 300 -c 0 -i 6 -a 0 -x {0.0 8.0 6 ------- null}
- -t 0.1436 -s 4 -d 5 -p cbr -e 300 -c 0 -i 6 -a 0 -x {0.0 8.0 6 ------- null}
h -t 0.1436 -s 4 -d 5 -p cbr -e 300 -c 0 -i 6 -a 0 -x {0.0 8.0 -1 ------- null}
r -t 0.1448 -s 4 -d 5 -p cbr -e 300 -c 0 -i 5 -a 0 -x {0.0 8.0 5 ------- null}
+ -t 0.1448 -s 5 -d 8 -p cbr -e 300 -c 0 -i 5 -a 0 -x {0.0 8.0 5 ------- null}
- -t 0.1448 -s 5 -d 8 -p cbr -e 300 -c 0 -i 5 -a 0 -x {0.0 8.0 5 ------- null}
h -t 0.1448 -s 5 -d 8 -p cbr -e 300 -c 0 -i 5 -a 0 -x {0.0 8.0 -1 ------- null}
+ -t 0.145 -s 0 -d 3 -p cbr -e 300 -c 0 -i 9 -a 0 -x {0.0 8.0 9 ------- null}
- -t 0.145 -s 0 -d 3 -p cbr -e 300 -c 0 -i 9 -a 0 -x {0.0 8.0 9 ------- null}
h -t 0.145 -s 0 -d 3 -p cbr -e 300 -c 0 -i 9 -a 0 -x {0.0 8.0 -1 ------- null}
r -t 0.146 -s 5 -d 8 -p cbr -e 300 -c 0 -i 4 -a 0 -x {0.0 8.0 4 ------- null}
r -t 0.1462 -s 0 -d 3 -p cbr -e 300 -c 0 -i 8 -a 0 -x {0.0 8.0 8 ------- null}
+ -t 0.1462 -s 3 -d 4 -p cbr -e 300 -c 0 -i 8 -a 0 -x {0.0 8.0 8 ------- null}
- -t 0.1462 -s 3 -d 4 -p cbr -e 300 -c 0 -i 8 -a 0 -x {0.0 8.0 8 ------- null}
h -t 0.1462 -s 3 -d 4 -p cbr -e 300 -c 0 -i 8 -a 0 -x {0.0 8.0 -1 ------- null}
r -t 0.1486 -s 3 -d 4 -p cbr -e 300 -c 0 -i 7 -a 0 -x {0.0 8.0 7 ------- null}
+ -t 0.1486 -s 4 -d 5 -p cbr -e 300 -c 0 -i 7 -a 0 -x {0.0 8.0 7 ------- null}
- -t 0.1486 -s 4 -d 5 -p cbr -e 300 -c 0 -i 7 -a 0 -x {0.0 8.0 7 ------- null}
h -t 0.1486 -s 4 -d 5 -p cbr -e 300 -c 0 -i 7 -a 0 -x {0.0 8.0 -1 ------- null}
r -t 0.1498 -s 4 -d 5 -p cbr -e 300 -c 0 -i 6 -a 0 -x {0.0 8.0 6 ------- null}
+ -t 0.1498 -s 5 -d 8 -p cbr -e 300 -c 0 -i 6 -a 0 -x {0.0 8.0 6 ------- null}
- -t 0.1498 -s 5 -d 8 -p cbr -e 300 -c 0 -i 6 -a 0 -x {0.0 8.0 6 ------- null}
h -t 0.1498 -s 5 -d 8 -p cbr -e 300 -c 0 -i 6 -a 0 -x {0.0 8.0 -1 ------- null}
+ -t 0.15 -s 0 -d 3 -p cbr -e 300 -c 0 -i 10 -a 0 -x {0.0 8.0 10 ------- null}
- -t 0.15 -s 0 -d 3 -p cbr -e 300 -c 0 -i 10 -a 0 -x {0.0 8.0 10 ------- null}
h -t 0.15 -s 0 -d 3 -p cbr -e 300 -c 0 -i 10 -a 0 -x {0.0 8.0 -1 ------- null}
r -t 0.151 -s 5 -d 8 -p cbr -e 300 -c 0 -i 5 -a 0 -x {0.0 8.0 5 ------- null}
r -t 0.1512 -s 0 -d 3 -p cbr -e 300 -c 0 -i 9 -a 0 -x {0.0 8.0 9 ------- null}
+ -t 0.1512 -s 3 -d 4 -p cbr -e 300 -c 0 -i 9 -a 0 -x {0.0 8.0 9 ------- null}
- -t 0.1512 -s 3 -d 4 -p cbr -e 300 -c 0 -i 9 -a 0 -x {0.0 8.0 9 ------- null}
h -t 0.1512 -s 3 -d 4 -p cbr -e 300 -c 0 -i 9 -a 0 -x {0.0 8.0 -1 ------- null}
r -t 0.1536 -s 3 -d 4 -p cbr -e 300 -c 0 -i 8 -a 0 -x {0.0 8.0 8 ------- null}
+ -t 0.1536 -s 4 -d 5 -p cbr -e 300 -c 0 -i 8 -a 0 -x {0.0 8.0 8 ------- null}
- -t 0.1536 -s 4 -d 5 -p cbr -e 300 -c 0 -i 8 -a 0 -x {0.0 8.0 8 ------- null}
h -t 0.1536 -s 4 -d 5 -p cbr -e 300 -c 0 -i 8 -a 0 -x {0.0 8.0 -1 ------- null}
r -t 0.1548 -s 4 -d 5 -p cbr -e 300 -c 0 -i 7 -a 0 -x {0.0 8.0 7 ------- null}
+ -t 0.1548 -s 5 -d 8 -p cbr -e 300 -c 0 -i 7 -a 0 -x {0.0 8.0 7 ------- null}
- -t 0.1548 -s 5 -d 8 -p cbr -e 300 -c 0 -i 7 -a 0 -x {0.0 8.0 7 ------- null}
h -t 0.1548 -s 5 -d 8 -p cbr -e 300 -c 0 -i 7 -a 0 -x {0.0 8.0 -1 ------- null}
+ -t 0.155 -s 0 -d 3 -p cbr -e 300 -c 0 -i 11 -a 0 -x {0.0 8.0 11 ------- null}
- -t 0.155 -s 0 -d 3 -p cbr -e 300 -c 0 -i 11 -a 0 -x {0.0 8.0 11 ------- null}
h -t 0.155 -s 0 -d 3 -p cbr -e 300 -c 0 -i 11 -a 0 -x {0.0 8.0 -1 ------- null}
r -t 0.156 -s 5 -d 8 -p cbr -e 300 -c 0 -i 6 -a 0 -x {0.0 8.0 6 ------- null}
r -t 0.1562 -s 0 -d 3 -p cbr -e 300 -c 0 -i 10 -a 0 -x {0.0 8.0 10 ------- null}
+ -t 0.1562 -s 3 -d 4 -p cbr -e 300 -c 0 -i 10 -a 0 -x {0.0 8.0 10 ------- null}
- -t 0.1562 -s 3 -d 4 -p cbr -e 300 -c 0 -i 10 -a 0 -x {0.0 8.0 10 ------- null}
h -t 0.1562 -s 3 -d 4 -p cbr -e 300 -c 0 -i 10 -a 0 -x {0.0 8.0 -1 ------- null}
r -t 0.1586 -s 3 -d 4 -p cbr -e 300 -c 0 -i 9 -a 0 -x {0.0 8.0 9 ------- null}
+ -t 0.1586 -s 4 -d 5 -p cbr -e 300 -c 0 -i 9 -a 0 -x {0.0 8.0 9 ------- null}
- -t 0.1586 -s 4 -d 5 -p cbr -e 300 -c 0 -i 9 -a 0 -x {0.0 8.0 9 ------- null}
h -t 0.1586 -s 4 -d 5 -p cbr -e 300 -c 0 -i 9 -a 0 -x {0.0 8.0 -1 ------- null}
r -t 0.1598 -s 4 -d 5 -p cbr -e 300 -c 0 -i 8 -a 0 -x {0.0 8.0 8 ------- null}
+ -t 0.1598 -s 5 -d 8 -p cbr -e 300 -c 0 -i 8 -a 0 -x {0.0 8.0 8 ------- null}
- -t 0.1598 -s 5 -d 8 -p cbr -e 300 -c 0 -i 8 -a 0 -x {0.0 8.0 8 ------- null}
h -t 0.1598 -s 5 -d 8 -p cbr -e 300 -c 0 -i 8 -a 0 -x {0.0 8.0 -1 ------- null}
+ -t 0.16 -s 0 -d 3 -p cbr -e 300 -c 0 -i 12 -a 0 -x {0.0 8.0 12 ------- null}
- -t 0.16 -s 0 -d 3 -p cbr -e 300 -c 0 -i 12 -a 0 -x {0.0 8.0 12 ------- null}
h -t 0.16 -s 0 -d 3 -p cbr -e 300 -c 0 -i 12 -a 0 -x {0.0 8.0 -1 ------- null}
r -t 0.161 -s 5 -d 8 -p cbr -e 300 -c 0 -i 7 -a 0 -x {0.0 8.0 7 ------- null}
r -t 0.1612 -s 0 -d 3 -p cbr -e 300 -c 0 -i 11 -a 0 -x {0.0 8.0 11 ------- null}
+ -t 0.1612 -s 3 -d 4 -p cbr -e 300 -c 0 -i 11 -a 0 -x {0.0 8.0 11 ------- null}
- -t 0.1612 -s 3 -d 4 -p cbr -e 300 -c 0 -i 11 -a 0 -x {0.0 8.0 11 ------- null}
h -t 0.1612 -s 3 -d 4 -p cbr -e 300 -c 0 -i 11 -a 0 -x {0.0 8.0 -1 ------- null}
r -t 0.1636 -s 3 -d 4 -p cbr -e 300 -c 0 -i 10 -a 0 -x {0.0 8.0 10 ------- null}
+ -t 0.1636 -s 4 -d 5 -p cbr -e 300 -c 0 -i 10 -a 0 -x {0.0 8.0 10 ------- null}
- -t 0.1636 -s 4 -d 5 -p cbr -e 300 -c 0 -i 10 -a 0 -x {0.0 8.0 10 ------- null}
h -t 0.1636 -s 4 -d 5 -p cbr -e 300 -c 0 -i 10 -a 0 -x {0.0 8.0 -1 ------- null}
r -t 0.1648 -s 4 -d 5 -p cbr -e 300 -c 0 -i 9 -a 0 -x {0.0 8.0 9 ------- null}
+ -t 0.1648 -s 5 -d 8 -p cbr -e 300 -c 0 -i 9 -a 0 -x {0.0 8.0 9 ------- null}
- -t 0.1648 -s 5 -d 8 -p cbr -e 300 -c 0 -i 9 -a 0 -x {0.0 8.0 9 ------- null}
h -t 0.1648 -s 5 -d 8 -p cbr -e 300 -c 0 -i 9 -a 0 -x {0.0 8.0 -1 ------- null}
+ -t 0.165 -s 0 -d 3 -p cbr -e 300 -c 0 -i 13 -a 0 -x {0.0 8.0 13 ------- null}
- -t 0.165 -s 0 -d 3 -p cbr -e 300 -c 0 -i 13 -a 0 -x {0.0 8.0 13 ------- null}
h -t 0.165 -s 0 -d 3 -p cbr -e 300 -c 0 -i 13 -a 0 -x {0.0 8.0 -1 ------- null}
r -t 0.166 -s 5 -d 8 -p cbr -e 300 -c 0 -i 8 -a 0 -x {0.0 8.0 8 ------- null}
r -t 0.1662 -s 0 -d 3 -p cbr -e 300 -c 0 -i 12 -a 0 -x {0.0 8.0 12 ------- null}
+ -t 0.1662 -s 3 -d 4 -p cbr -e 300 -c 0 -i 12 -a 0 -x {0.0 8.0 12 ------- null}
- -t 0.1662 -s 3 -d 4 -p cbr -e 300 -c 0 -i 12 -a 0 -x {0.0 8.0 12 ------- null}
h -t 0.1662 -s 3 -d 4 -p cbr -e 300 -c 0 -i 12 -a 0 -x {0.0 8.0 -1 ------- null}
r -t 0.1686 -s 3 -d 4 -p cbr -e 300 -c 0 -i 11 -a 0 -x {0.0 8.0 11 ------- null}
+ -t 0.1686 -s 4 -d 5 -p cbr -e 300 -c 0 -i 11 -a 0 -x {0.0 8.0 11 ------- null}
- -t 0.1686 -s 4 -d 5 -p cbr -e 300 -c 0 -i 11 -a 0 -x {0.0 8.0 11 ------- null}
h -t 0.1686 -s 4 -d 5 -p cbr -e 300 -c 0 -i 11 -a 0 -x {0.0 8.0 -1 ------- null}
r -t 0.1698 -s 4 -d 5 -p cbr -e 300 -c 0 -i 10 -a 0 -x {0.0 8.0 10 ------- null}
+ -t 0.1698 -s 5 -d 8 -p cbr -e 300 -c 0 -i 10 -a 0 -x {0.0 8.0 10 ------- null}
- -t 0.1698 -s 5 -d 8 -p cbr -e 300 -c 0 -i 10 -a 0 -x {0.0 8.0 10 ------- null}
h -t 0.1698 -s 5 -d 8 -p cbr -e 300 -c 0 -i 10 -a 0 -x {0.0 8.0 -1 ------- null}
+ -t 0.17 -s 0 -d 3 -p cbr -e 300 -c 0 -i 14 -a 0 -x {0.0 8.0 14 ------- null}
- -t 0.17 -s 0 -d 3 -p cbr -e 300 -c 0 -i 14 -a 0 -x {0.0 8.0 14 ------- null}
h -t 0.17 -s 0 -d 3 -p cbr -e 300 -c 0 -i 14 -a 0 -x {0.0 8.0 -1 ------- null}
r -t 0.171 -s 5 -d 8 -p cbr -e 300 -c 0 -i 9 -a 0 -x {0.0 8.0 9 ------- null}
r -t 0.1712 -s 0 -d 3 -p cbr -e 300 -c 0 -i 13 -a 0 -x {0.0 8.0 13 ------- null}
+ -t 0.1712 -s 3 -d 4 -p cbr -e 300 -c 0 -i 13 -a 0 -x {0.0 8.0 13 ------- null}
- -t 0.1712 -s 3 -d 4 -p cbr -e 300 -c 0 -i 13 -a 0 -x {0.0 8.0 13 ------- null}
h -t 0.1712 -s 3 -d 4 -p cbr -e 300 -c 0 -i 13 -a 0 -x {0.0 8.0 -1 ------- null}
r -t 0.1736 -s 3 -d 4 -p cbr -e 300 -c 0 -i 12 -a 0 -x {0.0 8.0 12 ------- null}
+ -t 0.1736 -s 4 -d 5 -p cbr -e 300 -c 0 -i 12 -a 0 -x {0.0 8.0 12 ------- null}
- -t 0.1736 -s 4 -d 5 -p cbr -e 300 -c 0 -i 12 -a 0 -x {0.0 8.0 12 ------- null}
h -t 0.1736 -s 4 -d 5 -p cbr -e 300 -c 0 -i 12 -a 0 -x {0.0 8.0 -1 ------- null}
r -t 0.1748 -s 4 -d 5 -p cbr -e 300 -c 0 -i 11 -a 0 -x {0.0 8.0 11 ------- null}
+ -t 0.1748 -s 5 -d 8 -p cbr -e 300 -c 0 -i 11 -a 0 -x {0.0 8.0 11 ------- null}
- -t 0.1748 -s 5 -d 8 -p cbr -e 300 -c 0 -i 11 -a 0 -x {0.0 8.0 11 ------- null}
h -t 0.1748 -s 5 -d 8 -p cbr -e 300 -c 0 -i 11 -a 0 -x {0.0 8.0 -1 ------- null}
+ -t 0.175 -s 0 -d 3 -p cbr -e 300 -c 0 -i 15 -a 0 -x {0.0 8.0 15 ------- null}
- -t 0.175 -s 0 -d 3 -p cbr -e 300 -c 0 -i 15 -a 0 -x {0.0 8.0 15 ------- null}
h -t 0.175 -s 0 -d 3 -p cbr -e 300 -c 0 -i 15 -a 0 -x {0.0 8.0 -1 ------- null}
r -t 0.176 -s 5 -d 8 -p cbr -e 300 -c 0 -i 10 -a 0 -x {0.0 8.0 10 ------- null}
r -t 0.1762 -s 0 -d 3 -p cbr -e 300 -c 0 -i 14 -a 0 -x {0.0 8.0 14 ------- null}
+ -t 0.1762 -s 3 -d 4 -p cbr -e 300 -c 0 -i 14 -a 0 -x {0.0 8.0 14 ------- null}
- -t 0.1762 -s 3 -d 4 -p cbr -e 300 -c 0 -i 14 -a 0 -x {0.0 8.0 14 ------- null}
h -t 0.1762 -s 3 -d 4 -p cbr -e 300 -c 0 -i 14 -a 0 -x {0.0 8.0 -1 ------- null}
r -t 0.1786 -s 3 -d 4 -p cbr -e 300 -c 0 -i 13 -a 0 -x {0.0 8.0 13 ------- null}
+ -t 0.1786 -s 4 -d 5 -p cbr -e 300 -c 0 -i 13 -a 0 -x {0.0 8.0 13 ------- null}
- -t 0.1786 -s 4 -d 5 -p cbr -e 300 -c 0 -i 13 -a 0 -x {0.0 8.0 13 ------- null}
h -t 0.1786 -s 4 -d 5 -p cbr -e 300 -c 0 -i 13 -a 0 -x {0.0 8.0 -1 ------- null}
r -t 0.1798 -s 4 -d 5 -p cbr -e 300 -c 0 -i 12 -a 0 -x {0.0 8.0 12 ------- null}
+ -t 0.1798 -s 5 -d 8 -p cbr -e 300 -c 0 -i 12 -a 0 -x {0.0 8.0 12 ------- null}
- -t 0.1798 -s 5 -d 8 -p cbr -e 300 -c 0 -i 12 -a 0 -x {0.0 8.0 12 ------- null}
h -t 0.1798 -s 5 -d 8 -p cbr -e 300 -c 0 -i 12 -a 0 -x {0.0 8.0 -1 ------- null}
+ -t 0.18 -s 0 -d 3 -p cbr -e 300 -c 0 -i 16 -a 0 -x {0.0 8.0 16 ------- null}
- -t 0.18 -s 0 -d 3 -p cbr -e 300 -c 0 -i 16 -a 0 -x {0.0 8.0 16 ------- null}
h -t 0.18 -s 0 -d 3 -p cbr -e 300 -c 0 -i 16 -a 0 -x {0.0 8.0 -1 ------- null}
r -t 0.181 -s 5 -d 8 -p cbr -e 300 -c 0 -i 11 -a 0 -x {0.0 8.0 11 ------- null}
r -t 0.1812 -s 0 -d 3 -p cbr -e 300 -c 0 -i 15 -a 0 -x {0.0 8.0 15 ------- null}
+ -t 0.1812 -s 3 -d 4 -p cbr -e 300 -c 0 -i 15 -a 0 -x {0.0 8.0 15 ------- null}
- -t 0.1812 -s 3 -d 4 -p cbr -e 300 -c 0 -i 15 -a 0 -x {0.0 8.0 15 ------- null}
h -t 0.1812 -s 3 -d 4 -p cbr -e 300 -c 0 -i 15 -a 0 -x {0.0 8.0 -1 ------- null}
r -t 0.1836 -s 3 -d 4 -p cbr -e 300 -c 0 -i 14 -a 0 -x {0.0 8.0 14 ------- null}
+ -t 0.1836 -s 4 -d 5 -p cbr -e 300 -c 0 -i 14 -a 0 -x {0.0 8.0 14 ------- null}
- -t 0.1836 -s 4 -d 5 -p cbr -e 300 -c 0 -i 14 -a 0 -x {0.0 8.0 14 ------- null}
h -t 0.1836 -s 4 -d 5 -p cbr -e 300 -c 0 -i 14 -a 0 -x {0.0 8.0 -1 ------- null}
r -t 0.1848 -s 4 -d 5 -p cbr -e 300 -c 0 -i 13 -a 0 -x {0.0 8.0 13 ------- null}
+ -t 0.1848 -s 5 -d 8 -p cbr -e 300 -c 0 -i 13 -a 0 -x {0.0 8.0 13 ------- null}
- -t 0.1848 -s 5 -d 8 -p cbr -e 300 -c 0 -i 13 -a 0 -x {0.0 8.0 13 ------- null}
h -t 0.1848 -s 5 -d 8 -p cbr -e 300 -c 0 -i 13 -a 0 -x {0.0 8.0 -1 ------- null}
+ -t 0.185 -s 0 -d 3 -p cbr -e 300 -c 0 -i 17 -a 0 -x {0.0 8.0 17 ------- null}
- -t 0.185 -s 0 -d 3 -p cbr -e 300 -c 0 -i 17 -a 0 -x {0.0 8.0 17 ------- null}
h -t 0.185 -s 0 -d 3 -p cbr -e 300 -c 0 -i 17 -a 0 -x {0.0 8.0 -1 ------- null}
r -t 0.186 -s 5 -d 8 -p cbr -e 300 -c 0 -i 12 -a 0 -x {0.0 8.0 12 ------- null}
r -t 0.1862 -s 0 -d 3 -p cbr -e 300 -c 0 -i 16 -a 0 -x {0.0 8.0 16 ------- null}
+ -t 0.1862 -s 3 -d 4 -p cbr -e 300 -c 0 -i 16 -a 0 -x {0.0 8.0 16 ------- null}
- -t 0.1862 -s 3 -d 4 -p cbr -e 300 -c 0 -i 16 -a 0 -x {0.0 8.0 16 ------- null}
h -t 0.1862 -s 3 -d 4 -p cbr -e 300 -c 0 -i 16 -a 0 -x {0.0 8.0 -1 ------- null}
r -t 0.1886 -s 3 -d 4 -p cbr -e 300 -c 0 -i 15 -a 0 -x {0.0 8.0 15 ------- null}
+ -t 0.1886 -s 4 -d 5 -p cbr -e 300 -c 0 -i 15 -a 0 -x {0.0 8.0 15 ------- null}
- -t 0.1886 -s 4 -d 5 -p cbr -e 300 -c 0 -i 15 -a 0 -x {0.0 8.0 15 ------- null}
h -t 0.1886 -s 4 -d 5 -p cbr -e 300 -c 0 -i 15 -a 0 -x {0.0 8.0 -1 ------- null}
r -t 0.1898 -s 4 -d 5 -p cbr -e 300 -c 0 -i 14 -a 0 -x {0.0 8.0 14 ------- null}
+ -t 0.1898 -s 5 -d 8 -p cbr -e 300 -c 0 -i 14 -a 0 -x {0.0 8.0 14 ------- null}
- -t 0.1898 -s 5 -d 8 -p cbr -e 300 -c 0 -i 14 -a 0 -x {0.0 8.0 14 ------- null}
h -t 0.1898 -s 5 -d 8 -p cbr -e 300 -c 0 -i 14 -a 0 -x {0.0 8.0 -1 ------- null}
+ -t 0.19 -s 0 -d 3 -p cbr -e 300 -c 0 -i 18 -a 0 -x {0.0 8.0 18 ------- null}
- -t 0.19 -s 0 -d 3 -p cbr -e 300 -c 0 -i 18 -a 0 -x {0.0 8.0 18 ------- null}
h -t 0.19 -s 0 -d 3 -p cbr -e 300 -c 0 -i 18 -a 0 -x {0.0 8.0 -1 ------- null}
r -t 0.191 -s 5 -d 8 -p cbr -e 300 -c 0 -i 13 -a 0 -x {0.0 8.0 13 ------- null}
r -t 0.1912 -s 0 -d 3 -p cbr -e 300 -c 0 -i 17 -a 0 -x {0.0 8.0 17 ------- null}
+ -t 0.1912 -s 3 -d 4 -p cbr -e 300 -c 0 -i 17 -a 0 -x {0.0 8.0 17 ------- null}
- -t 0.1912 -s 3 -d 4 -p cbr -e 300 -c 0 -i 17 -a 0 -x {0.0 8.0 17 ------- null}
h -t 0.1912 -s 3 -d 4 -p cbr -e 300 -c 0 -i 17 -a 0 -x {0.0 8.0 -1 ------- null}
r -t 0.1936 -s 3 -d 4 -p cbr -e 300 -c 0 -i 16 -a 0 -x {0.0 8.0 16 ------- null}
+ -t 0.1936 -s 4 -d 5 -p cbr -e 300 -c 0 -i 16 -a 0 -x {0.0 8.0 16 ------- null}
- -t 0.1936 -s 4 -d 5 -p cbr -e 300 -c 0 -i 16 -a 0 -x {0.0 8.0 16 ------- null}
h -t 0.1936 -s 4 -d 5 -p cbr -e 300 -c 0 -i 16 -a 0 -x {0.0 8.0 -1 ------- null}
r -t 0.1948 -s 4 -d 5 -p cbr -e 300 -c 0 -i 15 -a 0 -x {0.0 8.0 15 ------- null}
+ -t 0.1948 -s 5 -d 8 -p cbr -e 300 -c 0 -i 15 -a 0 -x {0.0 8.0 15 ------- null}
- -t 0.1948 -s 5 -d 8 -p cbr -e 300 -c 0 -i 15 -a 0 -x {0.0 8.0 15 ------- null}
h -t 0.1948 -s 5 -d 8 -p cbr -e 300 -c 0 -i 15 -a 0 -x {0.0 8.0 -1 ------- null}
+ -t 0.195 -s 0 -d 3 -p cbr -e 300 -c 0 -i 19 -a 0 -x {0.0 8.0 19 ------- null}
- -t 0.195 -s 0 -d 3 -p cbr -e 300 -c 0 -i 19 -a 0 -x {0.0 8.0 19 ------- null}
h -t 0.195 -s 0 -d 3 -p cbr -e 300 -c 0 -i 19 -a 0 -x {0.0 8.0 -1 ------- null}
r -t 0.196 -s 5 -d 8 -p cbr -e 300 -c 0 -i 14 -a 0 -x {0.0 8.0 14 ------- null}
r -t 0.1962 -s 0 -d 3 -p cbr -e 300 -c 0 -i 18 -a 0 -x {0.0 8.0 18 ------- null}
+ -t 0.1962 -s 3 -d 4 -p cbr -e 300 -c 0 -i 18 -a 0 -x {0.0 8.0 18 ------- null}
- -t 0.1962 -s 3 -d 4 -p cbr -e 300 -c 0 -i 18 -a 0 -x {0.0 8.0 18 ------- null}
h -t 0.1962 -s 3 -d 4 -p cbr -e 300 -c 0 -i 18 -a 0 -x {0.0 8.0 -1 ------- null}
r -t 0.1986 -s 3 -d 4 -p cbr -e 300 -c 0 -i 17 -a 0 -x {0.0 8.0 17 ------- null}
+ -t 0.1986 -s 4 -d 5 -p cbr -e 300 -c 0 -i 17 -a 0 -x {0.0 8.0 17 ------- null}
- -t 0.1986 -s 4 -d 5 -p cbr -e 300 -c 0 -i 17 -a 0 -x {0.0 8.0 17 ------- null}
h -t 0.1986 -s 4 -d 5 -p cbr -e 300 -c 0 -i 17 -a 0 -x {0.0 8.0 -1 ------- null}
r -t 0.1998 -s 4 -d 5 -p cbr -e 300 -c 0 -i 16 -a 0 -x {0.0 8.0 16 ------- null}
+ -t 0.1998 -s 5 -d 8 -p cbr -e 300 -c 0 -i 16 -a 0 -x {0.0 8.0 16 ------- null}
- -t 0.1998 -s 5 -d 8 -p cbr -e 300 -c 0 -i 16 -a 0 -x {0.0 8.0 16 ------- null}
h -t 0.1998 -s 5 -d 8 -p cbr -e 300 -c 0 -i 16 -a 0 -x {0.0 8.0 -1 ------- null}
+ -t 0.2 -s 0 -d 3 -p cbr -e 300 -c 0 -i 20 -a 0 -x {0.0 8.0 20 ------- null}
- -t 0.2 -s 0 -d 3 -p cbr -e 300 -c 0 -i 20 -a 0 -x {0.0 8.0 20 ------- null}
h -t 0.2 -s 0 -d 3 -p cbr -e 300 -c 0 -i 20 -a 0 -x {0.0 8.0 -1 ------- null}
r -t 0.201 -s 5 -d 8 -p cbr -e 300 -c 0 -i 15 -a 0 -x {0.0 8.0 15 ------- null}
r -t 0.2012 -s 0 -d 3 -p cbr -e 300 -c 0 -i 19 -a 0 -x {0.0 8.0 19 ------- null}
+ -t 0.2012 -s 3 -d 4 -p cbr -e 300 -c 0 -i 19 -a 0 -x {0.0 8.0 19 ------- null}
- -t 0.2012 -s 3 -d 4 -p cbr -e 300 -c 0 -i 19 -a 0 -x {0.0 8.0 19 ------- null}
h -t 0.2012 -s 3 -d 4 -p cbr -e 300 -c 0 -i 19 -a 0 -x {0.0 8.0 -1 ------- null}
r -t 0.2036 -s 3 -d 4 -p cbr -e 300 -c 0 -i 18 -a 0 -x {0.0 8.0 18 ------- null}
+ -t 0.2036 -s 4 -d 5 -p cbr -e 300 -c 0 -i 18 -a 0 -x {0.0 8.0 18 ------- null}
- -t 0.2036 -s 4 -d 5 -p cbr -e 300 -c 0 -i 18 -a 0 -x {0.0 8.0 18 ------- null}
h -t 0.2036 -s 4 -d 5 -p cbr -e 300 -c 0 -i 18 -a 0 -x {0.0 8.0 -1 ------- null}
r -t 0.2048 -s 4 -d 5 -p cbr -e 300 -c 0 -i 17 -a 0 -x {0.0 8.0 17 ------- null}
+ -t 0.2048 -s 5 -d 8 -p cbr -e 300 -c 0 -i 17 -a 0 -x {0.0 8.0 17 ------- null}
- -t 0.2048 -s 5 -d 8 -p cbr -e 300 -c 0 -i 17 -a 0 -x {0.0 8.0 17 ------- null}
h -t 0.2048 -s 5 -d 8 -p cbr -e 300 -c 0 -i 17 -a 0 -x {0.0 8.0 -1 ------- null}
+ -t 0.205 -s 0 -d 3 -p cbr -e 300 -c 0 -i 21 -a 0 -x {0.0 8.0 21 ------- null}
- -t 0.205 -s 0 -d 3 -p cbr -e 300 -c 0 -i 21 -a 0 -x {0.0 8.0 21 ------- null}
h -t 0.205 -s 0 -d 3 -p cbr -e 300 -c 0 -i 21 -a 0 -x {0.0 8.0 -1 ------- null}
r -t 0.206 -s 5 -d 8 -p cbr -e 300 -c 0 -i 16 -a 0 -x {0.0 8.0 16 ------- null}
r -t 0.2062 -s 0 -d 3 -p cbr -e 300 -c 0 -i 20 -a 0 -x {0.0 8.0 20 ------- null}
+ -t 0.2062 -s 3 -d 4 -p cbr -e 300 -c 0 -i 20 -a 0 -x {0.0 8.0 20 ------- null}
- -t 0.2062 -s 3 -d 4 -p cbr -e 300 -c 0 -i 20 -a 0 -x {0.0 8.0 20 ------- null}
h -t 0.2062 -s 3 -d 4 -p cbr -e 300 -c 0 -i 20 -a 0 -x {0.0 8.0 -1 ------- null}
r -t 0.2086 -s 3 -d 4 -p cbr -e 300 -c 0 -i 19 -a 0 -x {0.0 8.0 19 ------- null}
+ -t 0.2086 -s 4 -d 5 -p cbr -e 300 -c 0 -i 19 -a 0 -x {0.0 8.0 19 ------- null}
- -t 0.2086 -s 4 -d 5 -p cbr -e 300 -c 0 -i 19 -a 0 -x {0.0 8.0 19 ------- null}
h -t 0.2086 -s 4 -d 5 -p cbr -e 300 -c 0 -i 19 -a 0 -x {0.0 8.0 -1 ------- null}
r -t 0.2098 -s 4 -d 5 -p cbr -e 300 -c 0 -i 18 -a 0 -x {0.0 8.0 18 ------- null}
+ -t 0.2098 -s 5 -d 8 -p cbr -e 300 -c 0 -i 18 -a 0 -x {0.0 8.0 18 ------- null}
- -t 0.2098 -s 5 -d 8 -p cbr -e 300 -c 0 -i 18 -a 0 -x {0.0 8.0 18 ------- null}
h -t 0.2098 -s 5 -d 8 -p cbr -e 300 -c 0 -i 18 -a 0 -x {0.0 8.0 -1 ------- null}
+ -t 0.21 -s 0 -d 3 -p cbr -e 300 -c 0 -i 22 -a 0 -x {0.0 8.0 22 ------- null}
- -t 0.21 -s 0 -d 3 -p cbr -e 300 -c 0 -i 22 -a 0 -x {0.0 8.0 22 ------- null}
h -t 0.21 -s 0 -d 3 -p cbr -e 300 -c 0 -i 22 -a 0 -x {0.0 8.0 -1 ------- null}
r -t 0.211 -s 5 -d 8 -p cbr -e 300 -c 0 -i 17 -a 0 -x {0.0 8.0 17 ------- null}
r -t 0.2112 -s 0 -d 3 -p cbr -e 300 -c 0 -i 21 -a 0 -x {0.0 8.0 21 ------- null}
+ -t 0.2112 -s 3 -d 4 -p cbr -e 300 -c 0 -i 21 -a 0 -x {0.0 8.0 21 ------- null}
- -t 0.2112 -s 3 -d 4 -p cbr -e 300 -c 0 -i 21 -a 0 -x {0.0 8.0 21 ------- null}
h -t 0.2112 -s 3 -d 4 -p cbr -e 300 -c 0 -i 21 -a 0 -x {0.0 8.0 -1 ------- null}
r -t 0.2136 -s 3 -d 4 -p cbr -e 300 -c 0 -i 20 -a 0 -x {0.0 8.0 20 ------- null}
+ -t 0.2136 -s 4 -d 5 -p cbr -e 300 -c 0 -i 20 -a 0 -x {0.0 8.0 20 ------- null}
- -t 0.2136 -s 4 -d 5 -p cbr -e 300 -c 0 -i 20 -a 0 -x {0.0 8.0 20 ------- null}
h -t 0.2136 -s 4 -d 5 -p cbr -e 300 -c 0 -i 20 -a 0 -x {0.0 8.0 -1 ------- null}
r -t 0.2148 -s 4 -d 5 -p cbr -e 300 -c 0 -i 19 -a 0 -x {0.0 8.0 19 ------- null}
+ -t 0.2148 -s 5 -d 8 -p cbr -e 300 -c 0 -i 19 -a 0 -x {0.0 8.0 19 ------- null}
- -t 0.2148 -s 5 -d 8 -p cbr -e 300 -c 0 -i 19 -a 0 -x {0.0 8.0 19 ------- null}
h -t 0.2148 -s 5 -d 8 -p cbr -e 300 -c 0 -i 19 -a 0 -x {0.0 8.0 -1 ------- null}
+ -t 0.215 -s 0 -d 3 -p cbr -e 300 -c 0 -i 23 -a 0 -x {0.0 8.0 23 ------- null}
- -t 0.215 -s 0 -d 3 -p cbr -e 300 -c 0 -i 23 -a 0 -x {0.0 8.0 23 ------- null}
h -t 0.215 -s 0 -d 3 -p cbr -e 300 -c 0 -i 23 -a 0 -x {0.0 8.0 -1 ------- null}
r -t 0.216 -s 5 -d 8 -p cbr -e 300 -c 0 -i 18 -a 0 -x {0.0 8.0 18 ------- null}
r -t 0.2162 -s 0 -d 3 -p cbr -e 300 -c 0 -i 22 -a 0 -x {0.0 8.0 22 ------- null}
+ -t 0.2162 -s 3 -d 4 -p cbr -e 300 -c 0 -i 22 -a 0 -x {0.0 8.0 22 ------- null}
- -t 0.2162 -s 3 -d 4 -p cbr -e 300 -c 0 -i 22 -a 0 -x {0.0 8.0 22 ------- null}
h -t 0.2162 -s 3 -d 4 -p cbr -e 300 -c 0 -i 22 -a 0 -x {0.0 8.0 -1 ------- null}
r -t 0.2186 -s 3 -d 4 -p cbr -e 300 -c 0 -i 21 -a 0 -x {0.0 8.0 21 ------- null}
+ -t 0.2186 -s 4 -d 5 -p cbr -e 300 -c 0 -i 21 -a 0 -x {0.0 8.0 21 ------- null}
- -t 0.2186 -s 4 -d 5 -p cbr -e 300 -c 0 -i 21 -a 0 -x {0.0 8.0 21 ------- null}
h -t 0.2186 -s 4 -d 5 -p cbr -e 300 -c 0 -i 21 -a 0 -x {0.0 8.0 -1 ------- null}
r -t 0.2198 -s 4 -d 5 -p cbr -e 300 -c 0 -i 20 -a 0 -x {0.0 8.0 20 ------- null}
+ -t 0.2198 -s 5 -d 8 -p cbr -e 300 -c 0 -i 20 -a 0 -x {0.0 8.0 20 ------- null}
- -t 0.2198 -s 5 -d 8 -p cbr -e 300 -c 0 -i 20 -a 0 -x {0.0 8.0 20 ------- null}
h -t 0.2198 -s 5 -d 8 -p cbr -e 300 -c 0 -i 20 -a 0 -x {0.0 8.0 -1 ------- null}
+ -t 0.22 -s 0 -d 3 -p cbr -e 300 -c 0 -i 24 -a 0 -x {0.0 8.0 24 ------- null}