V -t * -v 1.0a5 -a 0
A -t * -n 1 -p 0 -o 0x7fffffff -c 30 -a 1
A -t * -h 1 -m 1073741823 -s 0
n -t * -a 8 -s 8 -S UP -v circle -c black -i black
n -t * -a 4 -s 4 -S UP -v circle -c black -i black
n -t * -a 0 -s 0 -S UP -v circle -c black -i black
n -t * -a 10 -s 10 -S UP -v circle -c black -i black
n -t * -a 9 -s 9 -S UP -v circle -c black -i black
n -t * -a 5 -s 5 -S UP -v circle -c black -i black
n -t * -a 1 -s 1 -S UP -v circle -c black -i black
n -t * -a 6 -s 6 -S UP -v circle -c black -i black
n -t * -a 2 -s 2 -S UP -v circle -c black -i black
n -t * -a 7 -s 7 -S UP -v circle -c black -i black
n -t * -a 3 -s 3 -S UP -v circle -c black -i black
l -t * -s 3 -d 0 -S UP -r 256000 -D 0.02 -c black -o left-up
l -t * -s 3 -d 1 -S UP -r 256000 -D 0.02 -c black -o left
l -t * -s 3 -d 2 -S UP -r 256000 -D 0.02 -c black -o left-down
l -t * -s 3 -d 4 -S UP -r 256000 -D 0.02 -c black -o right-up
l -t * -s 3 -d 6 -S UP -r 256000 -D 0.02 -c black -o right-down
l -t * -s 4 -d 5 -S UP -r 256000 -D 0.02 -c black -o right
l -t * -s 5 -d 8 -S UP -r 256000 -D 0.02 -c black -o right
l -t * -s 6 -d 7 -S UP -r 256000 -D 0.02 -c black -o right
l -t * -s 5 -d 7 -S UP -r 256000 -D 0.02 -c black -o down
l -t * -s 7 -d 9 -S UP -r 256000 -D 0.02 -c black -o right
l -t * -s 7 -d 10 -S UP -r 256000 -D 0.02 -c black -o down
+ -t 0.5 -s 0 -d 3 -p tcp -e 40 -c 1 -i 0 -a 1 -x {0.0 8.0 0 ------- null}
- -t 0.5 -s 0 -d 3 -p tcp -e 40 -c 1 -i 0 -a 1 -x {0.0 8.0 0 ------- null}
h -t 0.5 -s 0 -d 3 -p tcp -e 40 -c 1 -i 0 -a 1 -x {0.0 8.0 -1 ------- null}
r -t 0.52125 -s 0 -d 3 -p tcp -e 40 -c 1 -i 0 -a 1 -x {0.0 8.0 0 ------- null}
+ -t 0.52125 -s 3 -d 6 -p tcp -e 40 -c 1 -i 0 -a 1 -x {0.0 8.0 0 ------- null}
- -t 0.52125 -s 3 -d 6 -p tcp -e 40 -c 1 -i 0 -a 1 -x {0.0 8.0 0 ------- null}
h -t 0.52125 -s 3 -d 6 -p tcp -e 40 -c 1 -i 0 -a 1 -x {0.0 8.0 -1 ------- null}
r -t 0.5425 -s 3 -d 6 -p tcp -e 40 -c 1 -i 0 -a 1 -x {0.0 8.0 0 ------- null}
+ -t 0.5425 -s 6 -d 7 -p tcp -e 40 -c 1 -i 0 -a 1 -x {0.0 8.0 0 ------- null}
- -t 0.5425 -s 6 -d 7 -p tcp -e 40 -c 1 -i 0 -a 1 -x {0.0 8.0 0 ------- null}
h -t 0.5425 -s 6 -d 7 -p tcp -e 40 -c 1 -i 0 -a 1 -x {0.0 8.0 -1 ------- null}
r -t 0.56375 -s 6 -d 7 -p tcp -e 40 -c 1 -i 0 -a 1 -x {0.0 8.0 0 ------- null}
+ -t 0.56375 -s 7 -d 5 -p tcp -e 40 -c 1 -i 0 -a 1 -x {0.0 8.0 0 ------- null}
- -t 0.56375 -s 7 -d 5 -p tcp -e 40 -c 1 -i 0 -a 1 -x {0.0 8.0 0 ------- null}
h -t 0.56375 -s 7 -d 5 -p tcp -e 40 -c 1 -i 0 -a 1 -x {0.0 8.0 -1 ------- null}
r -t 0.585 -s 7 -d 5 -p tcp -e 40 -c 1 -i 0 -a 1 -x {0.0 8.0 0 ------- null}
+ -t 0.585 -s 5 -d 8 -p tcp -e 40 -c 1 -i 0 -a 1 -x {0.0 8.0 0 ------- null}
- -t 0.585 -s 5 -d 8 -p tcp -e 40 -c 1 -i 0 -a 1 -x {0.0 8.0 0 ------- null}
h -t 0.585 -s 5 -d 8 -p tcp -e 40 -c 1 -i 0 -a 1 -x {0.0 8.0 -1 ------- null}
r -t 0.60625 -s 5 -d 8 -p tcp -e 40 -c 1 -i 0 -a 1 -x {0.0 8.0 0 ------- null}
+ -t 0.60625 -s 8 -d 5 -p ack -e 40 -c 1 -i 1 -a 1 -x {8.0 0.0 0 ------- null}
- -t 0.60625 -s 8 -d 5 -p ack -e 40 -c 1 -i 1 -a 1 -x {8.0 0.0 0 ------- null}
h -t 0.60625 -s 8 -d 5 -p ack -e 40 -c 1 -i 1 -a 1 -x {8.0 0.0 -1 ------- null}
r -t 0.6275 -s 8 -d 5 -p ack -e 40 -c 1 -i 1 -a 1 -x {8.0 0.0 0 ------- null}
+ -t 0.6275 -s 5 -d 7 -p ack -e 40 -c 1 -i 1 -a 1 -x {8.0 0.0 0 ------- null}
- -t 0.6275 -s 5 -d 7 -p ack -e 40 -c 1 -i 1 -a 1 -x {8.0 0.0 0 ------- null}
h -t 0.6275 -s 5 -d 7 -p ack -e 40 -c 1 -i 1 -a 1 -x {8.0 0.0 -1 ------- null}
r -t 0.64875 -s 5 -d 7 -p ack -e 40 -c 1 -i 1 -a 1 -x {8.0 0.0 0 ------- null}
+ -t 0.64875 -s 7 -d 6 -p ack -e 40 -c 1 -i 1 -a 1 -x {8.0 0.0 0 ------- null}
- -t 0.64875 -s 7 -d 6 -p ack -e 40 -c 1 -i 1 -a 1 -x {8.0 0.0 0 ------- null}
h -t 0.64875 -s 7 -d 6 -p ack -e 40 -c 1 -i 1 -a 1 -x {8.0 0.0 -1 ------- null}
r -t 0.67 -s 7 -d 6 -p ack -e 40 -c 1 -i 1 -a 1 -x {8.0 0.0 0 ------- null}
+ -t 0.67 -s 6 -d 3 -p ack -e 40 -c 1 -i 1 -a 1 -x {8.0 0.0 0 ------- null}
- -t 0.67 -s 6 -d 3 -p ack -e 40 -c 1 -i 1 -a 1 -x {8.0 0.0 0 ------- null}
h -t 0.67 -s 6 -d 3 -p ack -e 40 -c 1 -i 1 -a 1 -x {8.0 0.0 -1 ------- null}
r -t 0.69125 -s 6 -d 3 -p ack -e 40 -c 1 -i 1 -a 1 -x {8.0 0.0 0 ------- null}
+ -t 0.69125 -s 3 -d 0 -p ack -e 40 -c 1 -i 1 -a 1 -x {8.0 0.0 0 ------- null}
- -t 0.69125 -s 3 -d 0 -p ack -e 40 -c 1 -i 1 -a 1 -x {8.0 0.0 0 ------- null}
h -t 0.69125 -s 3 -d 0 -p ack -e 40 -c 1 -i 1 -a 1 -x {8.0 0.0 -1 ------- null}
r -t 0.7125 -s 3 -d 0 -p ack -e 40 -c 1 -i 1 -a 1 -x {8.0 0.0 0 ------- null}
+ -t 0.7125 -s 0 -d 3 -p tcp -e 340 -c 1 -i 2 -a 1 -x {0.0 8.0 1 ------- null}
- -t 0.7125 -s 0 -d 3 -p tcp -e 340 -c 1 -i 2 -a 1 -x {0.0 8.0 1 ------- null}
h -t 0.7125 -s 0 -d 3 -p tcp -e 340 -c 1 -i 2 -a 1 -x {0.0 8.0 -1 ------- null}
+ -t 0.7125 -s 0 -d 3 -p tcp -e 340 -c 1 -i 3 -a 1 -x {0.0 8.0 2 ------- null}
- -t 0.723125 -s 0 -d 3 -p tcp -e 340 -c 1 -i 3 -a 1 -x {0.0 8.0 2 ------- null}
h -t 0.723125 -s 0 -d 3 -p tcp -e 340 -c 1 -i 3 -a 1 -x {0.0 8.0 -1 ------- null}
r -t 0.743125 -s 0 -d 3 -p tcp -e 340 -c 1 -i 2 -a 1 -x {0.0 8.0 1 ------- null}
+ -t 0.743125 -s 3 -d 6 -p tcp -e 340 -c 1 -i 2 -a 1 -x {0.0 8.0 1 ------- null}
- -t 0.743125 -s 3 -d 6 -p tcp -e 340 -c 1 -i 2 -a 1 -x {0.0 8.0 1 ------- null}
h -t 0.743125 -s 3 -d 6 -p tcp -e 340 -c 1 -i 2 -a 1 -x {0.0 8.0 -1 ------- null}
r -t 0.75375 -s 0 -d 3 -p tcp -e 340 -c 1 -i 3 -a 1 -x {0.0 8.0 2 ------- null}
+ -t 0.75375 -s 3 -d 6 -p tcp -e 340 -c 1 -i 3 -a 1 -x {0.0 8.0 2 ------- null}
- -t 0.75375 -s 3 -d 6 -p tcp -e 340 -c 1 -i 3 -a 1 -x {0.0 8.0 2 ------- null}
h -t 0.75375 -s 3 -d 6 -p tcp -e 340 -c 1 -i 3 -a 1 -x {0.0 8.0 -1 ------- null}
r -t 0.77375 -s 3 -d 6 -p tcp -e 340 -c 1 -i 2 -a 1 -x {0.0 8.0 1 ------- null}
+ -t 0.77375 -s 6 -d 7 -p tcp -e 340 -c 1 -i 2 -a 1 -x {0.0 8.0 1 ------- null}
- -t 0.77375 -s 6 -d 7 -p tcp -e 340 -c 1 -i 2 -a 1 -x {0.0 8.0 1 ------- null}
h -t 0.77375 -s 6 -d 7 -p tcp -e 340 -c 1 -i 2 -a 1 -x {0.0 8.0 -1 ------- null}
r -t 0.784375 -s 3 -d 6 -p tcp -e 340 -c 1 -i 3 -a 1 -x {0.0 8.0 2 ------- null}
+ -t 0.784375 -s 6 -d 7 -p tcp -e 340 -c 1 -i 3 -a 1 -x {0.0 8.0 2 ------- null}
- -t 0.784375 -s 6 -d 7 -p tcp -e 340 -c 1 -i 3 -a 1 -x {0.0 8.0 2 ------- null}
h -t 0.784375 -s 6 -d 7 -p tcp -e 340 -c 1 -i 3 -a 1 -x {0.0 8.0 -1 ------- null}
r -t 0.804375 -s 6 -d 7 -p tcp -e 340 -c 1 -i 2 -a 1 -x {0.0 8.0 1 ------- null}
+ -t 0.804375 -s 7 -d 5 -p tcp -e 340 -c 1 -i 2 -a 1 -x {0.0 8.0 1 ------- null}
- -t 0.804375 -s 7 -d 5 -p tcp -e 340 -c 1 -i 2 -a 1 -x {0.0 8.0 1 ------- null}
h -t 0.804375 -s 7 -d 5 -p tcp -e 340 -c 1 -i 2 -a 1 -x {0.0 8.0 -1 ------- null}
r -t 0.815 -s 6 -d 7 -p tcp -e 340 -c 1 -i 3 -a 1 -x {0.0 8.0 2 ------- null}
+ -t 0.815 -s 7 -d 5 -p tcp -e 340 -c 1 -i 3 -a 1 -x {0.0 8.0 2 ------- null}
- -t 0.815 -s 7 -d 5 -p tcp -e 340 -c 1 -i 3 -a 1 -x {0.0 8.0 2 ------- null}
h -t 0.815 -s 7 -d 5 -p tcp -e 340 -c 1 -i 3 -a 1 -x {0.0 8.0 -1 ------- null}
r -t 0.835 -s 7 -d 5 -p tcp -e 340 -c 1 -i 2 -a 1 -x {0.0 8.0 1 ------- null}
+ -t 0.835 -s 5 -d 8 -p tcp -e 340 -c 1 -i 2 -a 1 -x {0.0 8.0 1 ------- null}
- -t 0.835 -s 5 -d 8 -p tcp -e 340 -c 1 -i 2 -a 1 -x {0.0 8.0 1 ------- null}
h -t 0.835 -s 5 -d 8 -p tcp -e 340 -c 1 -i 2 -a 1 -x {0.0 8.0 -1 ------- null}
r -t 0.845625 -s 7 -d 5 -p tcp -e 340 -c 1 -i 3 -a 1 -x {0.0 8.0 2 ------- null}
+ -t 0.845625 -s 5 -d 8 -p tcp -e 340 -c 1 -i 3 -a 1 -x {0.0 8.0 2 ------- null}
- -t 0.845625 -s 5 -d 8 -p tcp -e 340 -c 1 -i 3 -a 1 -x {0.0 8.0 2 ------- null}
h -t 0.845625 -s 5 -d 8 -p tcp -e 340 -c 1 -i 3 -a 1 -x {0.0 8.0 -1 ------- null}
r -t 0.865625 -s 5 -d 8 -p tcp -e 340 -c 1 -i 2 -a 1 -x {0.0 8.0 1 ------- null}
+ -t 0.865625 -s 8 -d 5 -p ack -e 40 -c 1 -i 4 -a 1 -x {8.0 0.0 1 ------- null}
- -t 0.865625 -s 8 -d 5 -p ack -e 40 -c 1 -i 4 -a 1 -x {8.0 0.0 1 ------- null}
h -t 0.865625 -s 8 -d 5 -p ack -e 40 -c 1 -i 4 -a 1 -x {8.0 0.0 -1 ------- null}
r -t 0.87625 -s 5 -d 8 -p tcp -e 340 -c 1 -i 3 -a 1 -x {0.0 8.0 2 ------- null}
+ -t 0.87625 -s 8 -d 5 -p ack -e 40 -c 1 -i 5 -a 1 -x {8.0 0.0 2 ------- null}
- -t 0.87625 -s 8 -d 5 -p ack -e 40 -c 1 -i 5 -a 1 -x {8.0 0.0 2 ------- null}
h -t 0.87625 -s 8 -d 5 -p ack -e 40 -c 1 -i 5 -a 1 -x {8.0 0.0 -1 ------- null}
r -t 0.886875 -s 8 -d 5 -p ack -e 40 -c 1 -i 4 -a 1 -x {8.0 0.0 1 ------- null}
+ -t 0.886875 -s 5 -d 7 -p ack -e 40 -c 1 -i 4 -a 1 -x {8.0 0.0 1 ------- null}
- -t 0.886875 -s 5 -d 7 -p ack -e 40 -c 1 -i 4 -a 1 -x {8.0 0.0 1 ------- null}
h -t 0.886875 -s 5 -d 7 -p ack -e 40 -c 1 -i 4 -a 1 -x {8.0 0.0 -1 ------- null}
r -t 0.8975 -s 8 -d 5 -p ack -e 40 -c 1 -i 5 -a 1 -x {8.0 0.0 2 ------- null}
+ -t 0.8975 -s 5 -d 7 -p ack -e 40 -c 1 -i 5 -a 1 -x {8.0 0.0 2 ------- null}
- -t 0.8975 -s 5 -d 7 -p ack -e 40 -c 1 -i 5 -a 1 -x {8.0 0.0 2 ------- null}
h -t 0.8975 -s 5 -d 7 -p ack -e 40 -c 1 -i 5 -a 1 -x {8.0 0.0 -1 ------- null}
r -t 0.908125 -s 5 -d 7 -p ack -e 40 -c 1 -i 4 -a 1 -x {8.0 0.0 1 ------- null}
+ -t 0.908125 -s 7 -d 6 -p ack -e 40 -c 1 -i 4 -a 1 -x {8.0 0.0 1 ------- null}
- -t 0.908125 -s 7 -d 6 -p ack -e 40 -c 1 -i 4 -a 1 -x {8.0 0.0 1 ------- null}
h -t 0.908125 -s 7 -d 6 -p ack -e 40 -c 1 -i 4 -a 1 -x {8.0 0.0 -1 ------- null}
r -t 0.91875 -s 5 -d 7 -p ack -e 40 -c 1 -i 5 -a 1 -x {8.0 0.0 2 ------- null}
+ -t 0.91875 -s 7 -d 6 -p ack -e 40 -c 1 -i 5 -a 1 -x {8.0 0.0 2 ------- null}
- -t 0.91875 -s 7 -d 6 -p ack -e 40 -c 1 -i 5 -a 1 -x {8.0 0.0 2 ------- null}
h -t 0.91875 -s 7 -d 6 -p ack -e 40 -c 1 -i 5 -a 1 -x {8.0 0.0 -1 ------- null}
r -t 0.929375 -s 7 -d 6 -p ack -e 40 -c 1 -i 4 -a 1 -x {8.0 0.0 1 ------- null}
+ -t 0.929375 -s 6 -d 3 -p ack -e 40 -c 1 -i 4 -a 1 -x {8.0 0.0 1 ------- null}
- -t 0.929375 -s 6 -d 3 -p ack -e 40 -c 1 -i 4 -a 1 -x {8.0 0.0 1 ------- null}
h -t 0.929375 -s 6 -d 3 -p ack -e 40 -c 1 -i 4 -a 1 -x {8.0 0.0 -1 ------- null}
r -t 0.94 -s 7 -d 6 -p ack -e 40 -c 1 -i 5 -a 1 -x {8.0 0.0 2 ------- null}
+ -t 0.94 -s 6 -d 3 -p ack -e 40 -c 1 -i 5 -a 1 -x {8.0 0.0 2 ------- null}
- -t 0.94 -s 6 -d 3 -p ack -e 40 -c 1 -i 5 -a 1 -x {8.0 0.0 2 ------- null}
h -t 0.94 -s 6 -d 3 -p ack -e 40 -c 1 -i 5 -a 1 -x {8.0 0.0 -1 ------- null}
r -t 0.950625 -s 6 -d 3 -p ack -e 40 -c 1 -i 4 -a 1 -x {8.0 0.0 1 ------- null}
+ -t 0.950625 -s 3 -d 0 -p ack -e 40 -c 1 -i 4 -a 1 -x {8.0 0.0 1 ------- null}
- -t 0.950625 -s 3 -d 0 -p ack -e 40 -c 1 -i 4 -a 1 -x {8.0 0.0 1 ------- null}
h -t 0.950625 -s 3 -d 0 -p ack -e 40 -c 1 -i 4 -a 1 -x {8.0 0.0 -1 ------- null}
r -t 0.96125 -s 6 -d 3 -p ack -e 40 -c 1 -i 5 -a 1 -x {8.0 0.0 2 ------- null}
+ -t 0.96125 -s 3 -d 0 -p ack -e 40 -c 1 -i 5 -a 1 -x {8.0 0.0 2 ------- null}
- -t 0.96125 -s 3 -d 0 -p ack -e 40 -c 1 -i 5 -a 1 -x {8.0 0.0 2 ------- null}
h -t 0.96125 -s 3 -d 0 -p ack -e 40 -c 1 -i 5 -a 1 -x {8.0 0.0 -1 ------- null}
r -t 0.971875 -s 3 -d 0 -p ack -e 40 -c 1 -i 4 -a 1 -x {8.0 0.0 1 ------- null}
+ -t 0.971875 -s 0 -d 3 -p tcp -e 340 -c 1 -i 6 -a 1 -x {0.0 8.0 3 ------- null}
- -t 0.971875 -s 0 -d 3 -p tcp -e 340 -c 1 -i 6 -a 1 -x {0.0 8.0 3 ------- null}
h -t 0.971875 -s 0 -d 3 -p tcp -e 340 -c 1 -i 6 -a 1 -x {0.0 8.0 -1 ------- null}
+ -t 0.971875 -s 0 -d 3 -p tcp -e 340 -c 1 -i 7 -a 1 -x {0.0 8.0 4 ------- null}
r -t 0.9825 -s 3 -d 0 -p ack -e 40 -c 1 -i 5 -a 1 -x {8.0 0.0 2 ------- null}
+ -t 0.9825 -s 0 -d 3 -p tcp -e 340 -c 1 -i 8 -a 1 -x {0.0 8.0 5 ------- null}
+ -t 0.9825 -s 0 -d 3 -p tcp -e 340 -c 1 -i 9 -a 1 -x {0.0 8.0 6 ------- null}
- -t 0.9825 -s 0 -d 3 -p tcp -e 340 -c 1 -i 7 -a 1 -x {0.0 8.0 4 ------- null}
h -t 0.9825 -s 0 -d 3 -p tcp -e 340 -c 1 -i 7 -a 1 -x {0.0 8.0 -1 ------- null}
- -t 0.993125 -s 0 -d 3 -p tcp -e 340 -c 1 -i 8 -a 1 -x {0.0 8.0 5 ------- null}
h -t 0.993125 -s 0 -d 3 -p tcp -e 340 -c 1 -i 8 -a 1 -x {0.0 8.0 -1 ------- null}
r -t 1.0025 -s 0 -d 3 -p tcp -e 340 -c 1 -i 6 -a 1 -x {0.0 8.0 3 ------- null}
+ -t 1.0025 -s 3 -d 6 -p tcp -e 340 -c 1 -i 6 -a 1 -x {0.0 8.0 3 ------- null}
- -t 1.0025 -s 3 -d 6 -p tcp -e 340 -c 1 -i 6 -a 1 -x {0.0 8.0 3 ------- null}
h -t 1.0025 -s 3 -d 6 -p tcp -e 340 -c 1 -i 6 -a 1 -x {0.0 8.0 -1 ------- null}
- -t 1.00375 -s 0 -d 3 -p tcp -e 340 -c 1 -i 9 -a 1 -x {0.0 8.0 6 ------- null}
h -t 1.00375 -s 0 -d 3 -p tcp -e 340 -c 1 -i 9 -a 1 -x {0.0 8.0 -1 ------- null}
r -t 1.013125 -s 0 -d 3 -p tcp -e 340 -c 1 -i 7 -a 1 -x {0.0 8.0 4 ------- null}
+ -t 1.013125 -s 3 -d 6 -p tcp -e 340 -c 1 -i 7 -a 1 -x {0.0 8.0 4 ------- null}
- -t 1.013125 -s 3 -d 6 -p tcp -e 340 -c 1 -i 7 -a 1 -x {0.0 8.0 4 ------- null}
h -t 1.013125 -s 3 -d 6 -p tcp -e 340 -c 1 -i 7 -a 1 -x {0.0 8.0 -1 ------- null}
r -t 1.02375 -s 0 -d 3 -p tcp -e 340 -c 1 -i 8 -a 1 -x {0.0 8.0 5 ------- null}
+ -t 1.02375 -s 3 -d 6 -p tcp -e 340 -c 1 -i 8 -a 1 -x {0.0 8.0 5 ------- null}
- -t 1.02375 -s 3 -d 6 -p tcp -e 340 -c 1 -i 8 -a 1 -x {0.0 8.0 5 ------- null}
h -t 1.02375 -s 3 -d 6 -p tcp -e 340 -c 1 -i 8 -a 1 -x {0.0 8.0 -1 ------- null}
r -t 1.033125 -s 3 -d 6 -p tcp -e 340 -c 1 -i 6 -a 1 -x {0.0 8.0 3 ------- null}
+ -t 1.033125 -s 6 -d 7 -p tcp -e 340 -c 1 -i 6 -a 1 -x {0.0 8.0 3 ------- null}
- -t 1.033125 -s 6 -d 7 -p tcp -e 340 -c 1 -i 6 -a 1 -x {0.0 8.0 3 ------- null}
h -t 1.033125 -s 6 -d 7 -p tcp -e 340 -c 1 -i 6 -a 1 -x {0.0 8.0 -1 ------- null}
r -t 1.034375 -s 0 -d 3 -p tcp -e 340 -c 1 -i 9 -a 1 -x {0.0 8.0 6 ------- null}
+ -t 1.034375 -s 3 -d 6 -p tcp -e 340 -c 1 -i 9 -a 1 -x {0.0 8.0 6 ------- null}
- -t 1.034375 -s 3 -d 6 -p tcp -e 340 -c 1 -i 9 -a 1 -x {0.0 8.0 6 ------- null}
h -t 1.034375 -s 3 -d 6 -p tcp -e 340 -c 1 -i 9 -a 1 -x {0.0 8.0 -1 ------- null}
r -t 1.04375 -s 3 -d 6 -p tcp -e 340 -c 1 -i 7 -a 1 -x {0.0 8.0 4 ------- null}
+ -t 1.04375 -s 6 -d 7 -p tcp -e 340 -c 1 -i 7 -a 1 -x {0.0 8.0 4 ------- null}
- -t 1.04375 -s 6 -d 7 -p tcp -e 340 -c 1 -i 7 -a 1 -x {0.0 8.0 4 ------- null}
h -t 1.04375 -s 6 -d 7 -p tcp -e 340 -c 1 -i 7 -a 1 -x {0.0 8.0 -1 ------- null}
r -t 1.054375 -s 3 -d 6 -p tcp -e 340 -c 1 -i 8 -a 1 -x {0.0 8.0 5 ------- null}
+ -t 1.054375 -s 6 -d 7 -p tcp -e 340 -c 1 -i 8 -a 1 -x {0.0 8.0 5 ------- null}
- -t 1.054375 -s 6 -d 7 -p tcp -e 340 -c 1 -i 8 -a 1 -x {0.0 8.0 5 ------- null}
h -t 1.054375 -s 6 -d 7 -p tcp -e 340 -c 1 -i 8 -a 1 -x {0.0 8.0 -1 ------- null}
r -t 1.06375 -s 6 -d 7 -p tcp -e 340 -c 1 -i 6 -a 1 -x {0.0 8.0 3 ------- null}
+ -t 1.06375 -s 7 -d 5 -p tcp -e 340 -c 1 -i 6 -a 1 -x {0.0 8.0 3 ------- null}
- -t 1.06375 -s 7 -d 5 -p tcp -e 340 -c 1 -i 6 -a 1 -x {0.0 8.0 3 ------- null}
h -t 1.06375 -s 7 -d 5 -p tcp -e 340 -c 1 -i 6 -a 1 -x {0.0 8.0 -1 ------- null}
r -t 1.065 -s 3 -d 6 -p tcp -e 340 -c 1 -i 9 -a 1 -x {0.0 8.0 6 ------- null}
+ -t 1.065 -s 6 -d 7 -p tcp -e 340 -c 1 -i 9 -a 1 -x {0.0 8.0 6 ------- null}
- -t 1.065 -s 6 -d 7 -p tcp -e 340 -c 1 -i 9 -a 1 -x {0.0 8.0 6 ------- null}
h -t 1.065 -s 6 -d 7 -p tcp -e 340 -c 1 -i 9 -a 1 -x {0.0 8.0 -1 ------- null}
r -t 1.074375 -s 6 -d 7 -p tcp -e 340 -c 1 -i 7 -a 1 -x {0.0 8.0 4 ------- null}
+ -t 1.074375 -s 7 -d 5 -p tcp -e 340 -c 1 -i 7 -a 1 -x {0.0 8.0 4 ------- null}
- -t 1.074375 -s 7 -d 5 -p tcp -e 340 -c 1 -i 7 -a 1 -x {0.0 8.0 4 ------- null}
h -t 1.074375 -s 7 -d 5 -p tcp -e 340 -c 1 -i 7 -a 1 -x {0.0 8.0 -1 ------- null}
r -t 1.085 -s 6 -d 7 -p tcp -e 340 -c 1 -i 8 -a 1 -x {0.0 8.0 5 ------- null}
+ -t 1.085 -s 7 -d 5 -p tcp -e 340 -c 1 -i 8 -a 1 -x {0.0 8.0 5 ------- null}
- -t 1.085 -s 7 -d 5 -p tcp -e 340 -c 1 -i 8 -a 1 -x {0.0 8.0 5 ------- null}
h -t 1.085 -s 7 -d 5 -p tcp -e 340 -c 1 -i 8 -a 1 -x {0.0 8.0 -1 ------- null}
r -t 1.094375 -s 7 -d 5 -p tcp -e 340 -c 1 -i 6 -a 1 -x {0.0 8.0 3 ------- null}
+ -t 1.094375 -s 5 -d 8 -p tcp -e 340 -c 1 -i 6 -a 1 -x {0.0 8.0 3 ------- null}
- -t 1.094375 -s 5 -d 8 -p tcp -e 340 -c 1 -i 6 -a 1 -x {0.0 8.0 3 ------- null}
h -t 1.094375 -s 5 -d 8 -p tcp -e 340 -c 1 -i 6 -a 1 -x {0.0 8.0 -1 ------- null}
r -t 1.095625 -s 6 -d 7 -p tcp -e 340 -c 1 -i 9 -a 1 -x {0.0 8.0 6 ------- null}
+ -t 1.095625 -s 7 -d 5 -p tcp -e 340 -c 1 -i 9 -a 1 -x {0.0 8.0 6 ------- null}
- -t 1.095625 -s 7 -d 5 -p tcp -e 340 -c 1 -i 9 -a 1 -x {0.0 8.0 6 ------- null}
h -t 1.095625 -s 7 -d 5 -p tcp -e 340 -c 1 -i 9 -a 1 -x {0.0 8.0 -1 ------- null}
r -t 1.105 -s 7 -d 5 -p tcp -e 340 -c 1 -i 7 -a 1 -x {0.0 8.0 4 ------- null}
+ -t 1.105 -s 5 -d 8 -p tcp -e 340 -c 1 -i 7 -a 1 -x {0.0 8.0 4 ------- null}
- -t 1.105 -s 5 -d 8 -p tcp -e 340 -c 1 -i 7 -a 1 -x {0.0 8.0 4 ------- null}
h -t 1.105 -s 5 -d 8 -p tcp -e 340 -c 1 -i 7 -a 1 -x {0.0 8.0 -1 ------- null}
r -t 1.115625 -s 7 -d 5 -p tcp -e 340 -c 1 -i 8 -a 1 -x {0.0 8.0 5 ------- null}
+ -t 1.115625 -s 5 -d 8 -p tcp -e 340 -c 1 -i 8 -a 1 -x {0.0 8.0 5 ------- null}
- -t 1.115625 -s 5 -d 8 -p tcp -e 340 -c 1 -i 8 -a 1 -x {0.0 8.0 5 ------- null}
h -t 1.115625 -s 5 -d 8 -p tcp -e 340 -c 1 -i 8 -a 1 -x {0.0 8.0 -1 ------- null}
r -t 1.125 -s 5 -d 8 -p tcp -e 340 -c 1 -i 6 -a 1 -x {0.0 8.0 3 ------- null}
+ -t 1.125 -s 8 -d 5 -p ack -e 40 -c 1 -i 10 -a 1 -x {8.0 0.0 3 ------- null}
- -t 1.125 -s 8 -d 5 -p ack -e 40 -c 1 -i 10 -a 1 -x {8.0 0.0 3 ------- null}
h -t 1.125 -s 8 -d 5 -p ack -e 40 -c 1 -i 10 -a 1 -x {8.0 0.0 -1 ------- null}
r -t 1.12625 -s 7 -d 5 -p tcp -e 340 -c 1 -i 9 -a 1 -x {0.0 8.0 6 ------- null}
+ -t 1.12625 -s 5 -d 8 -p tcp -e 340 -c 1 -i 9 -a 1 -x {0.0 8.0 6 ------- null}
- -t 1.12625 -s 5 -d 8 -p tcp -e 340 -c 1 -i 9 -a 1 -x {0.0 8.0 6 ------- null}
h -t 1.12625 -s 5 -d 8 -p tcp -e 340 -c 1 -i 9 -a 1 -x {0.0 8.0 -1 ------- null}
r -t 1.135625 -s 5 -d 8 -p tcp -e 340 -c 1 -i 7 -a 1 -x {0.0 8.0 4 ------- null}
+ -t 1.135625 -s 8 -d 5 -p ack -e 40 -c 1 -i 11 -a 1 -x {8.0 0.0 4 ------- null}
- -t 1.135625 -s 8 -d 5 -p ack -e 40 -c 1 -i 11 -a 1 -x {8.0 0.0 4 ------- null}
h -t 1.135625 -s 8 -d 5 -p ack -e 40 -c 1 -i 11 -a 1 -x {8.0 0.0 -1 ------- null}
r -t 1.14625 -s 8 -d 5 -p ack -e 40 -c 1 -i 10 -a 1 -x {8.0 0.0 3 ------- null}
+ -t 1.14625 -s 5 -d 7 -p ack -e 40 -c 1 -i 10 -a 1 -x {8.0 0.0 3 ------- null}
- -t 1.14625 -s 5 -d 7 -p ack -e 40 -c 1 -i 10 -a 1 -x {8.0 0.0 3 ------- null}
h -t 1.14625 -s 5 -d 7 -p ack -e 40 -c 1 -i 10 -a 1 -x {8.0 0.0 -1 ------- null}
r -t 1.14625 -s 5 -d 8 -p tcp -e 340 -c 1 -i 8 -a 1 -x {0.0 8.0 5 ------- null}
+ -t 1.14625 -s 8 -d 5 -p ack -e 40 -c 1 -i 12 -a 1 -x {8.0 0.0 5 ------- null}
- -t 1.14625 -s 8 -d 5 -p ack -e 40 -c 1 -i 12 -a 1 -x {8.0 0.0 5 ------- null}
h -t 1.14625 -s 8 -d 5 -p ack -e 40 -c 1 -i 12 -a 1 -x {8.0 0.0 -1 ------- null}
r -t 1.156875 -s 8 -d 5 -p ack -e 40 -c 1 -i 11 -a 1 -x {8.0 0.0 4 ------- null}
+ -t 1.156875 -s 5 -d 7 -p ack -e 40 -c 1 -i 11 -a 1 -x {8.0 0.0 4 ------- null}
- -t 1.156875 -s 5 -d 7 -p ack -e 40 -c 1 -i 11 -a 1 -x {8.0 0.0 4 ------- null}
h -t 1.156875 -s 5 -d 7 -p ack -e 40 -c 1 -i 11 -a 1 -x {8.0 0.0 -1 ------- null}
r -t 1.156875 -s 5 -d 8 -p tcp -e 340 -c 1 -i 9 -a 1 -x {0.0 8.0 6 ------- null}
+ -t 1.156875 -s 8 -d 5 -p ack -e 40 -c 1 -i 13 -a 1 -x {8.0 0.0 6 ------- null}
- -t 1.156875 -s 8 -d 5 -p ack -e 40 -c 1 -i 13 -a 1 -x {8.0 0.0 6 ------- null}
h -t 1.156875 -s 8 -d 5 -p ack -e 40 -c 1 -i 13 -a 1 -x {8.0 0.0 -1 ------- null}
r -t 1.1675 -s 5 -d 7 -p ack -e 40 -c 1 -i 10 -a 1 -x {8.0 0.0 3 ------- null}
+ -t 1.1675 -s 7 -d 6 -p ack -e 40 -c 1 -i 10 -a 1 -x {8.0 0.0 3 ------- null}
- -t 1.1675 -s 7 -d 6 -p ack -e 40 -c 1 -i 10 -a 1 -x {8.0 0.0 3 ------- null}
h -t 1.1675 -s 7 -d 6 -p ack -e 40 -c 1 -i 10 -a 1 -x {8.0 0.0 -1 ------- null}
r -t 1.1675 -s 8 -d 5 -p ack -e 40 -c 1 -i 12 -a 1 -x {8.0 0.0 5 ------- null}
+ -t 1.1675 -s 5 -d 7 -p ack -e 40 -c 1 -i 12 -a 1 -x {8.0 0.0 5 ------- null}
- -t 1.1675 -s 5 -d 7 -p ack -e 40 -c 1 -i 12 -a 1 -x {8.0 0.0 5 ------- null}
h -t 1.1675 -s 5 -d 7 -p ack -e 40 -c 1 -i 12 -a 1 -x {8.0 0.0 -1 ------- null}
r -t 1.178125 -s 5 -d 7 -p ack -e 40 -c 1 -i 11 -a 1 -x {8.0 0.0 4 ------- null}
+ -t 1.178125 -s 7 -d 6 -p ack -e 40 -c 1 -i 11 -a 1 -x {8.0 0.0 4 ------- null}
- -t 1.178125 -s 7 -d 6 -p ack -e 40 -c 1 -i 11 -a 1 -x {8.0 0.0 4 ------- null}
h -t 1.178125 -s 7 -d 6 -p ack -e 40 -c 1 -i 11 -a 1 -x {8.0 0.0 -1 ------- null}
r -t 1.178125 -s 8 -d 5 -p ack -e 40 -c 1 -i 13 -a 1 -x {8.0 0.0 6 ------- null}
+ -t 1.178125 -s 5 -d 7 -p ack -e 40 -c 1 -i 13 -a 1 -x {8.0 0.0 6 ------- null}
- -t 1.178125 -s 5 -d 7 -p ack -e 40 -c 1 -i 13 -a 1 -x {8.0 0.0 6 ------- null}
h -t 1.178125 -s 5 -d 7 -p ack -e 40 -c 1 -i 13 -a 1 -x {8.0 0.0 -1 ------- null}
r -t 1.18875 -s 7 -d 6 -p ack -e 40 -c 1 -i 10 -a 1 -x {8.0 0.0 3 ------- null}
+ -t 1.18875 -s 6 -d 3 -p ack -e 40 -c 1 -i 10 -a 1 -x {8.0 0.0 3 ------- null}
- -t 1.18875 -s 6 -d 3 -p ack -e 40 -c 1 -i 10 -a 1 -x {8.0 0.0 3 ------- null}
h -t 1.18875 -s 6 -d 3 -p ack -e 40 -c 1 -i 10 -a 1 -x {8.0 0.0 -1 ------- null}
r -t 1.18875 -s 5 -d 7 -p ack -e 40 -c 1 -i 12 -a 1 -x {8.0 0.0 5 ------- null}
+ -t 1.18875 -s 7 -d 6 -p ack -e 40 -c 1 -i 12 -a 1 -x {8.0 0.0 5 ------- null}
- -t 1.18875 -s 7 -d 6 -p ack -e 40 -c 1 -i 12 -a 1 -x {8.0 0.0 5 ------- null}
h -t 1.18875 -s 7 -d 6 -p ack -e 40 -c 1 -i 12 -a 1 -x {8.0 0.0 -1 ------- null}
r -t 1.199375 -s 7 -d 6 -p ack -e 40 -c 1 -i 11 -a 1 -x {8.0 0.0 4 ------- null}
+ -t 1.199375 -s 6 -d 3 -p ack -e 40 -c 1 -i 11 -a 1 -x {8.0 0.0 4 ------- null}
- -t 1.199375 -s 6 -d 3 -p ack -e 40 -c 1 -i 11 -a 1 -x {8.0 0.0 4 ------- null}
h -t 1.199375 -s 6 -d 3 -p ack -e 40 -c 1 -i 11 -a 1 -x {8.0 0.0 -1 ------- null}
r -t 1.199375 -s 5 -d 7 -p ack -e 40 -c 1 -i 13 -a 1 -x {8.0 0.0 6 ------- null}
+ -t 1.199375 -s 7 -d 6 -p ack -e 40 -c 1 -i 13 -a 1 -x {8.0 0.0 6 ------- null}
- -t 1.199375 -s 7 -d 6 -p ack -e 40 -c 1 -i 13 -a 1 -x {8.0 0.0 6 ------- null}
h -t 1.199375 -s 7 -d 6 -p ack -e 40 -c 1 -i 13 -a 1 -x {8.0 0.0 -1 ------- null}
r -t 1.21 -s 6 -d 3 -p ack -e 40 -c 1 -i 10 -a 1 -x {8.0 0.0 3 ------- null}
+ -t 1.21 -s 3 -d 0 -p ack -e 40 -c 1 -i 10 -a 1 -x {8.0 0.0 3 ------- null}
- -t 1.21 -s 3 -d 0 -p ack -e 40 -c 1 -i 10 -a 1 -x {8.0 0.0 3 ------- null}
h -t 1.21 -s 3 -d 0 -p ack -e 40 -c 1 -i 10 -a 1 -x {8.0 0.0 -1 ------- null}
r -t 1.21 -s 7 -d 6 -p ack -e 40 -c 1 -i 12 -a 1 -x {8.0 0.0 5 ------- null}
+ -t 1.21 -s 6 -d 3 -p ack -e 40 -c 1 -i 12 -a 1 -x {8.0 0.0 5 ------- null}
- -t 1.21 -s 6 -d 3 -p ack -e 40 -c 1 -i 12 -a 1 -x {8.0 0.0 5 ------- null}
h -t 1.21 -s 6 -d 3 -p ack -e 40 -c 1 -i 12 -a 1 -x {8.0 0.0 -1 ------- null}
r -t 1.220625 -s 6 -d 3 -p ack -e 40 -c 1 -i 11 -a 1 -x {8.0 0.0 4 ------- null}
+ -t 1.220625 -s 3 -d 0 -p ack -e 40 -c 1 -i 11 -a 1 -x {8.0 0.0 4 ------- null}
- -t 1.220625 -s 3 -d 0 -p ack -e 40 -c 1 -i 11 -a 1 -x {8.0 0.0 4 ------- null}
h -t 1.220625 -s 3 -d 0 -p ack -e 40 -c 1 -i 11 -a 1 -x {8.0 0.0 -1 ------- null}
r -t 1.220625 -s 7 -d 6 -p ack -e 40 -c 1 -i 13 -a 1 -x {8.0 0.0 6 ------- null}
+ -t 1.220625 -s 6 -d 3 -p ack -e 40 -c 1 -i 13 -a 1 -x {8.0 0.0 6 ------- null}
- -t 1.220625 -s 6 -d 3 -p ack -e 40 -c 1 -i 13 -a 1 -x {8.0 0.0 6 ------- null}
h -t 1.220625 -s 6 -d 3 -p ack -e 40 -c 1 -i 13 -a 1 -x {8.0 0.0 -1 ------- null}
r -t 1.23125 -s 3 -d 0 -p ack -e 40 -c 1 -i 10 -a 1 -x {8.0 0.0 3 ------- null}
+ -t 1.23125 -s 0 -d 3 -p tcp -e 340 -c 1 -i 14 -a 1 -x {0.0 8.0 7 ------- null}
- -t 1.23125 -s 0 -d 3 -p tcp -e 340 -c 1 -i 14 -a 1 -x {0.0 8.0 7 ------- null}
h -t 1.23125 -s 0 -d 3 -p tcp -e 340 -c 1 -i 14 -a 1 -x {0.0 8.0 -1 ------- null}
+ -t 1.23125 -s 0 -d 3 -p tcp -e 340 -c 1 -i 15 -a 1 -x {0.0 8.0 8 ------- null}
r -t 1.23125 -s 6 -d 3 -p ack -e 40 -c 1 -i 12 -a 1 -x {8.0 0.0 5 ------- null}
+ -t 1.23125 -s 3 -d 0 -p ack -e 40 -c 1 -i 12 -a 1 -x {8.0 0.0 5 ------- null}
- -t 1.23125 -s 3 -d 0 -p ack -e 40 -c 1 -i 12 -a 1 -x {8.0 0.0 5 ------- null}
h -t 1.23125 -s 3 -d 0 -p ack -e 40 -c 1 -i 12 -a 1 -x {8.0 0.0 -1 ------- null}
r -t 1.241875 -s 3 -d 0 -p ack -e 40 -c 1 -i 11 -a 1 -x {8.0 0.0 4 ------- null}
+ -t 1.241875 -s 0 -d 3 -p tcp -e 340 -c 1 -i 16 -a 1 -x {0.0 8.0 9 ------- null}
+ -t 1.241875 -s 0 -d 3 -p tcp -e 340 -c 1 -i 17 -a 1 -x {0.0 8.0 10 ------- null}
- -t 1.241875 -s 0 -d 3 -p tcp -e 340 -c 1 -i 15 -a 1 -x {0.0 8.0 8 ------- null}
h -t 1.241875 -s 0 -d 3 -p tcp -e 340 -c 1 -i 15 -a 1 -x {0.0 8.0 -1 ------- null}
r -t 1.241875 -s 6 -d 3 -p ack -e 40 -c 1 -i 13 -a 1 -x {8.0 0.0 6 ------- null}
+ -t 1.241875 -s 3 -d 0 -p ack -e 40 -c 1 -i 13 -a 1 -x {8.0 0.0 6 ------- null}
- -t 1.241875 -s 3 -d 0 -p ack -e 40 -c 1 -i 13 -a 1 -x {8.0 0.0 6 ------- null}
h -t 1.241875 -s 3 -d 0 -p ack -e 40 -c 1 -i 13 -a 1 -x {8.0 0.0 -1 ------- null}
r -t 1.2525 -s 3 -d 0 -p ack -e 40 -c 1 -i 12 -a 1 -x {8.0 0.0 5 ------- null}
+ -t 1.2525 -s 0 -d 3 -p tcp -e 340 -c 1 -i 18 -a 1 -x {0.0 8.0 11 ------- null}
+ -t 1.2525 -s 0 -d 3 -p tcp -e 340 -c 1 -i 19 -a 1 -x {0.0 8.0 12 ------- null}
- -t 1.2525 -s 0 -d 3 -p tcp -e 340 -c 1 -i 16 -a 1 -x {0.0 8.0 9 ------- null}
h -t 1.2525 -s 0 -d 3 -p tcp -e 340 -c 1 -i 16 -a 1 -x {0.0 8.0 -1 ------- null}
r -t 1.261875 -s 0 -d 3 -p tcp -e 340 -c 1 -i 14 -a 1 -x {0.0 8.0 7 ------- null}
+ -t 1.261875 -s 3 -d 6 -p tcp -e 340 -c 1 -i 14 -a 1 -x {0.0 8.0 7 ------- null}
- -t 1.261875 -s 3 -d 6 -p tcp -e 340 -c 1 -i 14 -a 1 -x {0.0 8.0 7 ------- null}
h -t 1.261875 -s 3 -d 6 -p tcp -e 340 -c 1 -i 14 -a 1 -x {0.0 8.0 -1 ------- null}
r -t 1.263125 -s 3 -d 0 -p ack -e 40 -c 1 -i 13 -a 1 -x {8.0 0.0 6 ------- null}
+ -t 1.263125 -s 0 -d 3 -p tcp -e 340 -c 1 -i 20 -a 1 -x {0.0 8.0 13 ------- null}
+ -t 1.263125 -s 0 -d 3 -p tcp -e 340 -c 1 -i 21 -a 1 -x {0.0 8.0 14 ------- null}
- -t 1.263125 -s 0 -d 3 -p tcp -e 340 -c 1 -i 17 -a 1 -x {0.0 8.0 10 ------- null}
h -t 1.263125 -s 0 -d 3 -p tcp -e 340 -c 1 -i 17 -a 1 -x {0.0 8.0 -1 ------- null}
r -t 1.2725 -s 0 -d 3 -p tcp -e 340 -c 1 -i 15 -a 1 -x {0.0 8.0 8 ------- null}
+ -t 1.2725 -s 3 -d 6 -p tcp -e 340 -c 1 -i 15 -a 1 -x {0.0 8.0 8 ------- null}
- -t 1.2725 -s 3 -d 6 -p tcp -e 340 -c 1 -i 15 -a 1 -x {0.0 8.0 8 ------- null}
h -t 1.2725 -s 3 -d 6 -p tcp -e 340 -c 1 -i 15 -a 1 -x {0.0 8.0 -1 ------- null}
- -t 1.27375 -s 0 -d 3 -p tcp -e 340 -c 1 -i 18 -a 1 -x {0.0 8.0 11 ------- null}
h -t 1.27375 -s 0 -d 3 -p tcp -e 340 -c 1 -i 18 -a 1 -x {0.0 8.0 -1 ------- null}
r -t 1.283125 -s 0 -d 3 -p tcp -e 340 -c 1 -i 16 -a 1 -x {0.0 8.0 9 ------- null}
+ -t 1.283125 -s 3 -d 6 -p tcp -e 340 -c 1 -i 16 -a 1 -x {0.0 8.0 9 ------- null}
- -t 1.283125 -s 3 -d 6 -p tcp -e 340 -c 1 -i 16 -a 1 -x {0.0 8.0 9 ------- null}
h -t 1.283125 -s 3 -d 6 -p tcp -e 340 -c 1 -i 16 -a 1 -x {0.0 8.0 -1 ------- null}
- -t 1.284375 -s 0 -d 3 -p tcp -e 340 -c 1 -i 19 -a 1 -x {0.0 8.0 12 ------- null}
h -t 1.284375 -s 0 -d 3 -p tcp -e 340 -c 1 -i 19 -a 1 -x {0.0 8.0 -1 ------- null}
r -t 1.2925 -s 3 -d 6 -p tcp -e 340 -c 1 -i 14 -a 1 -x {0.0 8.0 7 ------- null}
+ -t 1.2925 -s 6 -d 7 -p tcp -e 340 -c 1 -i 14 -a 1 -x {0.0 8.0 7 ------- null}
- -t 1.2925 -s 6 -d 7 -p tcp -e 340 -c 1 -i 14 -a 1 -x {0.0 8.0 7 ------- null}
h -t 1.2925 -s 6 -d 7 -p tcp -e 340 -c 1 -i 14 -a 1 -x {0.0 8.0 -1 ------- null}
r -t 1.29375 -s 0 -d 3 -p tcp -e 340 -c 1 -i 17 -a 1 -x {0.0 8.0 10 ------- null}
+ -t 1.29375 -s 3 -d 6 -p tcp -e 340 -c 1 -i 17 -a 1 -x {0.0 8.0 10 ------- null}
- -t 1.29375 -s 3 -d 6 -p tcp -e 340 -c 1 -i 17 -a 1 -x {0.0 8.0 10 ------- null}
h -t 1.29375 -s 3 -d 6 -p tcp -e 340 -c 1 -i 17 -a 1 -x {0.0 8.0 -1 ------- null}
- -t 1.295 -s 0 -d 3 -p tcp -e 340 -c 1 -i 20 -a 1 -x {0.0 8.0 13 ------- null}
h -t 1.295 -s 0 -d 3 -p tcp -e 340 -c 1 -i 20 -a 1 -x {0.0 8.0 -1 ------- null}
r -t 1.303125 -s 3 -d 6 -p tcp -e 340 -c 1 -i 15 -a 1 -x {0.0 8.0 8 ------- null}
+ -t 1.303125 -s 6 -d 7 -p tcp -e 340 -c 1 -i 15 -a 1 -x {0.0 8.0 8 ------- null}
- -t 1.303125 -s 6 -d 7 -p tcp -e 340 -c 1 -i 15 -a 1 -x {0.0 8.0 8 ------- null}
h -t 1.303125 -s 6 -d 7 -p tcp -e 340 -c 1 -i 15 -a 1 -x {0.0 8.0 -1 ------- null}
r -t 1.304375 -s 0 -d 3 -p tcp -e 340 -c 1 -i 18 -a 1 -x {0.0 8.0 11 ------- null}
+ -t 1.304375 -s 3 -d 6 -p tcp -e 340 -c 1 -i 18 -a 1 -x {0.0 8.0 11 ------- null}
- -t 1.304375 -s 3 -d 6 -p tcp -e 340 -c 1 -i 18 -a 1 -x {0.0 8.0 11 ------- null}
h -t 1.304375 -s 3 -d 6 -p tcp -e 340 -c 1 -i 18 -a 1 -x {0.0 8.0 -1 ------- null}
- -t 1.305625 -s 0 -d 3 -p tcp -e 340 -c 1 -i 21 -a 1 -x {0.0 8.0 14 ------- null}
h -t 1.305625 -s 0 -d 3 -p tcp -e 340 -c 1 -i 21 -a 1 -x {0.0 8.0 -1 ------- null}
r -t 1.31375 -s 3 -d 6 -p tcp -e 340 -c 1 -i 16 -a 1 -x {0.0 8.0 9 ------- null}
+ -t 1.31375 -s 6 -d 7 -p tcp -e 340 -c 1 -i 16 -a 1 -x {0.0 8.0 9 ------- null}
- -t 1.31375 -s 6 -d 7 -p tcp -e 340 -c 1 -i 16 -a 1 -x {0.0 8.0 9 ------- null}
h -t 1.31375 -s 6 -d 7 -p tcp -e 340 -c 1 -i 16 -a 1 -x {0.0 8.0 -1 ------- null}
r -t 1.315 -s 0 -d 3 -p tcp -e 340 -c 1 -i 19 -a 1 -x {0.0 8.0 12 ------- null}
+ -t 1.315 -s 3 -d 6 -p tcp -e 340 -c 1 -i 19 -a 1 -x {0.0 8.0 12 ------- null}
- -t 1.315 -s 3 -d 6 -p tcp -e 340 -c 1 -i 19 -a 1 -x {0.0 8.0 12 ------- null}
h -t 1.315 -s 3 -d 6 -p tcp -e 340 -c 1 -i 19 -a 1 -x {0.0 8.0 -1 ------- null}
r -t 1.323125 -s 6 -d 7 -p tcp -e 340 -c 1 -i 14 -a 1 -x {0.0 8.0 7 ------- null}
+ -t 1.323125 -s 7 -d 5 -p tcp -e 340 -c 1 -i 14 -a 1 -x {0.0 8.0 7 ------- null}
- -t 1.323125 -s 7 -d 5 -p tcp -e 340 -c 1 -i 14 -a 1 -x {0.0 8.0 7 ------- null}
h -t 1.323125 -s 7 -d 5 -p tcp -e 340 -c 1 -i 14 -a 1 -x {0.0 8.0 -1 ------- null}
r -t 1.324375 -s 3 -d 6 -p tcp -e 340 -c 1 -i 17 -a 1 -x {0.0 8.0 10 ------- null}
+ -t 1.324375 -s 6 -d 7 -p tcp -e 340 -c 1 -i 17 -a 1 -x {0.0 8.0 10 ------- null}
- -t 1.324375 -s 6 -d 7 -p tcp -e 340 -c 1 -i 17 -a 1 -x {0.0 8.0 10 ------- null}
h -t 1.324375 -s 6 -d 7 -p tcp -e 340 -c 1 -i 17 -a 1 -x {0.0 8.0 -1 ------- null}
r -t 1.325625 -s 0 -d 3 -p tcp -e 340 -c 1 -i 20 -a 1 -x {0.0 8.0 13 ------- null}
+ -t 1.325625 -s 3 -d 6 -p tcp -e 340 -c 1 -i 20 -a 1 -x {0.0 8.0 13 ------- null}
- -t 1.325625 -s 3 -d 6 -p tcp -e 340 -c 1 -i 20 -a 1 -x {0.0 8.0 13 ------- null}
h -t 1.325625 -s 3 -d 6 -p tcp -e 340 -c 1 -i 20 -a 1 -x {0.0 8.0 -1 ------- null}
r -t 1.33375 -s 6 -d 7 -p tcp -e 340 -c 1 -i 15 -a 1 -x {0.0 8.0 8 ------- null}
+ -t 1.33375 -s 7 -d 5 -p tcp -e 340 -c 1 -i 15 -a 1 -x {0.0 8.0 8 ------- null}
- -t 1.33375 -s 7 -d 5 -p tcp -e 340 -c 1 -i 15 -a 1 -x {0.0 8.0 8 ------- null}
h -t 1.33375 -s 7 -d 5 -p tcp -e 340 -c 1 -i 15 -a 1 -x {0.0 8.0 -1 ------- null}
r -t 1.335 -s 3 -d 6 -p tcp -e 340 -c 1 -i 18 -a 1 -x {0.0 8.0 11 ------- null}