V -t * -v 1.0a5 -a 0
A -t * -n 1 -p 0 -o 0x7fffffff -c 30 -a 1
A -t * -h 1 -m 1073741823 -s 0
c -t * -i 1 -n Red
c -t * -i 2 -n Green
n -t * -a 8 -s 8 -S UP -v circle -c black -i black
n -t * -a 4 -s 4 -S UP -v circle -c black -i black
n -t * -a 0 -s 0 -S UP -v circle -c black -i black
n -t * -a 10 -s 10 -S UP -v circle -c black -i black
n -t * -a 9 -s 9 -S UP -v circle -c black -i black
n -t * -a 5 -s 5 -S UP -v circle -c black -i black
n -t * -a 1 -s 1 -S UP -v circle -c black -i black
n -t * -a 6 -s 6 -S UP -v circle -c black -i black
n -t * -a 2 -s 2 -S UP -v circle -c black -i black
n -t * -a 7 -s 7 -S UP -v circle -c black -i black
n -t * -a 3 -s 3 -S UP -v circle -c black -i black
l -t * -s 3 -d 0 -S UP -r 128000 -D 0.01 -c black -o left-up
l -t * -s 3 -d 1 -S UP -r 128000 -D 0.01 -c black -o left
l -t * -s 3 -d 2 -S UP -r 128000 -D 0.01 -c black -o left-down
l -t * -s 3 -d 4 -S UP -r 128000 -D 0.01 -c black -o right-up
l -t * -s 3 -d 6 -S UP -r 128000 -D 0.01 -c black -o right-down
l -t * -s 4 -d 5 -S UP -r 128000 -D 0.01 -c black -o right
l -t * -s 5 -d 8 -S UP -r 128000 -D 0.01 -c black -o right
l -t * -s 6 -d 7 -S UP -r 128000 -D 0.01 -c black -o right
l -t * -s 5 -d 7 -S UP -r 128000 -D 0.01 -c black -o down
l -t * -s 7 -d 9 -S UP -r 128000 -D 0.01 -c black -o right
l -t * -s 7 -d 10 -S UP -r 128000 -D 0.01 -c black -o down
q -t * -s 3 -d 4 -a 0.5
q -t * -s 4 -d 3 -a 0.5
+ -t 0.221623 -s 1 -d 3 -p udp -e 758 -c 2 -i 0 -a 2 -x {1.0 9.0 0 ------- null}
- -t 0.221623 -s 1 -d 3 -p udp -e 758 -c 2 -i 0 -a 2 -x {1.0 9.0 0 ------- null}
h -t 0.221623 -s 1 -d 3 -p udp -e 758 -c 2 -i 0 -a 2 -x {1.0 9.0 -1 ------- null}
+ -t 0.226529 -s 0 -d 3 -p udp -e 588 -c 1 -i 1 -a 1 -x {0.0 8.0 0 ------- null}
- -t 0.226529 -s 0 -d 3 -p udp -e 588 -c 1 -i 1 -a 1 -x {0.0 8.0 0 ------- null}
h -t 0.226529 -s 0 -d 3 -p udp -e 588 -c 1 -i 1 -a 1 -x {0.0 8.0 -1 ------- null}
r -t 0.273279 -s 0 -d 3 -p udp -e 588 -c 1 -i 1 -a 1 -x {0.0 8.0 0 ------- null}
+ -t 0.273279 -s 3 -d 4 -p udp -e 588 -c 1 -i 1 -a 1 -x {0.0 8.0 0 ------- null}
- -t 0.273279 -s 3 -d 4 -p udp -e 588 -c 1 -i 1 -a 1 -x {0.0 8.0 0 ------- null}
h -t 0.273279 -s 3 -d 4 -p udp -e 588 -c 1 -i 1 -a 1 -x {0.0 8.0 -1 ------- null}
+ -t 0.275249 -s 1 -d 3 -p udp -e 625 -c 2 -i 2 -a 2 -x {1.0 9.0 1 ------- null}
- -t 0.275249 -s 1 -d 3 -p udp -e 625 -c 2 -i 2 -a 2 -x {1.0 9.0 1 ------- null}
h -t 0.275249 -s 1 -d 3 -p udp -e 625 -c 2 -i 2 -a 2 -x {1.0 9.0 -1 ------- null}
r -t 0.278998 -s 1 -d 3 -p udp -e 758 -c 2 -i 0 -a 2 -x {1.0 9.0 0 ------- null}
+ -t 0.278998 -s 3 -d 6 -p udp -e 758 -c 2 -i 0 -a 2 -x {1.0 9.0 0 ------- null}
- -t 0.278998 -s 3 -d 6 -p udp -e 758 -c 2 -i 0 -a 2 -x {1.0 9.0 0 ------- null}
h -t 0.278998 -s 3 -d 6 -p udp -e 758 -c 2 -i 0 -a 2 -x {1.0 9.0 -1 ------- null}
r -t 0.320029 -s 3 -d 4 -p udp -e 588 -c 1 -i 1 -a 1 -x {0.0 8.0 0 ------- null}
+ -t 0.320029 -s 4 -d 5 -p udp -e 588 -c 1 -i 1 -a 1 -x {0.0 8.0 0 ------- null}
- -t 0.320029 -s 4 -d 5 -p udp -e 588 -c 1 -i 1 -a 1 -x {0.0 8.0 0 ------- null}
h -t 0.320029 -s 4 -d 5 -p udp -e 588 -c 1 -i 1 -a 1 -x {0.0 8.0 -1 ------- null}
r -t 0.3243115 -s 1 -d 3 -p udp -e 625 -c 2 -i 2 -a 2 -x {1.0 9.0 1 ------- null}
+ -t 0.3243115 -s 3 -d 6 -p udp -e 625 -c 2 -i 2 -a 2 -x {1.0 9.0 1 ------- null}
- -t 0.326373 -s 3 -d 6 -p udp -e 625 -c 2 -i 2 -a 2 -x {1.0 9.0 1 ------- null}
h -t 0.326373 -s 3 -d 6 -p udp -e 625 -c 2 -i 2 -a 2 -x {1.0 9.0 -1 ------- null}
r -t 0.336373 -s 3 -d 6 -p udp -e 758 -c 2 -i 0 -a 2 -x {1.0 9.0 0 ------- null}
+ -t 0.336373 -s 6 -d 7 -p udp -e 758 -c 2 -i 0 -a 2 -x {1.0 9.0 0 ------- null}
- -t 0.336373 -s 6 -d 7 -p udp -e 758 -c 2 -i 0 -a 2 -x {1.0 9.0 0 ------- null}
h -t 0.336373 -s 6 -d 7 -p udp -e 758 -c 2 -i 0 -a 2 -x {1.0 9.0 -1 ------- null}
+ -t 0.361315 -s 0 -d 3 -p udp -e 760 -c 1 -i 3 -a 1 -x {0.0 8.0 1 ------- null}
- -t 0.361315 -s 0 -d 3 -p udp -e 760 -c 1 -i 3 -a 1 -x {0.0 8.0 1 ------- null}
h -t 0.361315 -s 0 -d 3 -p udp -e 760 -c 1 -i 3 -a 1 -x {0.0 8.0 -1 ------- null}
r -t 0.366779 -s 4 -d 5 -p udp -e 588 -c 1 -i 1 -a 1 -x {0.0 8.0 0 ------- null}
+ -t 0.366779 -s 5 -d 8 -p udp -e 588 -c 1 -i 1 -a 1 -x {0.0 8.0 0 ------- null}
- -t 0.366779 -s 5 -d 8 -p udp -e 588 -c 1 -i 1 -a 1 -x {0.0 8.0 0 ------- null}
h -t 0.366779 -s 5 -d 8 -p udp -e 588 -c 1 -i 1 -a 1 -x {0.0 8.0 -1 ------- null}
r -t 0.3754355 -s 3 -d 6 -p udp -e 625 -c 2 -i 2 -a 2 -x {1.0 9.0 1 ------- null}
+ -t 0.3754355 -s 6 -d 7 -p udp -e 625 -c 2 -i 2 -a 2 -x {1.0 9.0 1 ------- null}
- -t 0.383748 -s 6 -d 7 -p udp -e 625 -c 2 -i 2 -a 2 -x {1.0 9.0 1 ------- null}
h -t 0.383748 -s 6 -d 7 -p udp -e 625 -c 2 -i 2 -a 2 -x {1.0 9.0 -1 ------- null}
r -t 0.393748 -s 6 -d 7 -p udp -e 758 -c 2 -i 0 -a 2 -x {1.0 9.0 0 ------- null}
+ -t 0.393748 -s 7 -d 9 -p udp -e 758 -c 2 -i 0 -a 2 -x {1.0 9.0 0 ------- null}
- -t 0.393748 -s 7 -d 9 -p udp -e 758 -c 2 -i 0 -a 2 -x {1.0 9.0 0 ------- null}
h -t 0.393748 -s 7 -d 9 -p udp -e 758 -c 2 -i 0 -a 2 -x {1.0 9.0 -1 ------- null}
r -t 0.413529 -s 5 -d 8 -p udp -e 588 -c 1 -i 1 -a 1 -x {0.0 8.0 0 ------- null}
+ -t 0.413767 -s 1 -d 3 -p udp -e 845 -c 2 -i 4 -a 2 -x {1.0 9.0 2 ------- null}
- -t 0.413767 -s 1 -d 3 -p udp -e 845 -c 2 -i 4 -a 2 -x {1.0 9.0 2 ------- null}
h -t 0.413767 -s 1 -d 3 -p udp -e 845 -c 2 -i 4 -a 2 -x {1.0 9.0 -1 ------- null}
r -t 0.418815 -s 0 -d 3 -p udp -e 760 -c 1 -i 3 -a 1 -x {0.0 8.0 1 ------- null}
+ -t 0.418815 -s 3 -d 4 -p udp -e 760 -c 1 -i 3 -a 1 -x {0.0 8.0 1 ------- null}
- -t 0.418815 -s 3 -d 4 -p udp -e 760 -c 1 -i 3 -a 1 -x {0.0 8.0 1 ------- null}
h -t 0.418815 -s 3 -d 4 -p udp -e 760 -c 1 -i 3 -a 1 -x {0.0 8.0 -1 ------- null}
+ -t 0.419941 -s 0 -d 3 -p udp -e 652 -c 1 -i 5 -a 1 -x {0.0 8.0 2 ------- null}
- -t 0.419941 -s 0 -d 3 -p udp -e 652 -c 1 -i 5 -a 1 -x {0.0 8.0 2 ------- null}
h -t 0.419941 -s 0 -d 3 -p udp -e 652 -c 1 -i 5 -a 1 -x {0.0 8.0 -1 ------- null}
r -t 0.4328105 -s 6 -d 7 -p udp -e 625 -c 2 -i 2 -a 2 -x {1.0 9.0 1 ------- null}
+ -t 0.4328105 -s 7 -d 9 -p udp -e 625 -c 2 -i 2 -a 2 -x {1.0 9.0 1 ------- null}
- -t 0.441123 -s 7 -d 9 -p udp -e 625 -c 2 -i 2 -a 2 -x {1.0 9.0 1 ------- null}
h -t 0.441123 -s 7 -d 9 -p udp -e 625 -c 2 -i 2 -a 2 -x {1.0 9.0 -1 ------- null}
r -t 0.451123 -s 7 -d 9 -p udp -e 758 -c 2 -i 0 -a 2 -x {1.0 9.0 0 ------- null}
r -t 0.470691 -s 0 -d 3 -p udp -e 652 -c 1 -i 5 -a 1 -x {0.0 8.0 2 ------- null}
+ -t 0.470691 -s 3 -d 4 -p udp -e 652 -c 1 -i 5 -a 1 -x {0.0 8.0 2 ------- null}
- -t 0.470691 -s 3 -d 4 -p udp -e 652 -c 1 -i 5 -a 1 -x {0.0 8.0 2 ------- null}
h -t 0.470691 -s 3 -d 4 -p udp -e 652 -c 1 -i 5 -a 1 -x {0.0 8.0 -1 ------- null}
r -t 0.476315 -s 3 -d 4 -p udp -e 760 -c 1 -i 3 -a 1 -x {0.0 8.0 1 ------- null}
+ -t 0.476315 -s 4 -d 5 -p udp -e 760 -c 1 -i 3 -a 1 -x {0.0 8.0 1 ------- null}
- -t 0.476315 -s 4 -d 5 -p udp -e 760 -c 1 -i 3 -a 1 -x {0.0 8.0 1 ------- null}
h -t 0.476315 -s 4 -d 5 -p udp -e 760 -c 1 -i 3 -a 1 -x {0.0 8.0 -1 ------- null}
r -t 0.4765795 -s 1 -d 3 -p udp -e 845 -c 2 -i 4 -a 2 -x {1.0 9.0 2 ------- null}
+ -t 0.4765795 -s 3 -d 6 -p udp -e 845 -c 2 -i 4 -a 2 -x {1.0 9.0 2 ------- null}
- -t 0.4765795 -s 3 -d 6 -p udp -e 845 -c 2 -i 4 -a 2 -x {1.0 9.0 2 ------- null}
h -t 0.4765795 -s 3 -d 6 -p udp -e 845 -c 2 -i 4 -a 2 -x {1.0 9.0 -1 ------- null}
r -t 0.4901855 -s 7 -d 9 -p udp -e 625 -c 2 -i 2 -a 2 -x {1.0 9.0 1 ------- null}
r -t 0.521441 -s 3 -d 4 -p udp -e 652 -c 1 -i 5 -a 1 -x {0.0 8.0 2 ------- null}
+ -t 0.521441 -s 4 -d 5 -p udp -e 652 -c 1 -i 5 -a 1 -x {0.0 8.0 2 ------- null}
- -t 0.523815 -s 4 -d 5 -p udp -e 652 -c 1 -i 5 -a 1 -x {0.0 8.0 2 ------- null}
h -t 0.523815 -s 4 -d 5 -p udp -e 652 -c 1 -i 5 -a 1 -x {0.0 8.0 -1 ------- null}
r -t 0.533815 -s 4 -d 5 -p udp -e 760 -c 1 -i 3 -a 1 -x {0.0 8.0 1 ------- null}
+ -t 0.533815 -s 5 -d 8 -p udp -e 760 -c 1 -i 3 -a 1 -x {0.0 8.0 1 ------- null}
- -t 0.533815 -s 5 -d 8 -p udp -e 760 -c 1 -i 3 -a 1 -x {0.0 8.0 1 ------- null}
h -t 0.533815 -s 5 -d 8 -p udp -e 760 -c 1 -i 3 -a 1 -x {0.0 8.0 -1 ------- null}
+ -t 0.537102 -s 0 -d 3 -p udp -e 778 -c 1 -i 6 -a 1 -x {0.0 8.0 3 ------- null}
- -t 0.537102 -s 0 -d 3 -p udp -e 778 -c 1 -i 6 -a 1 -x {0.0 8.0 3 ------- null}
h -t 0.537102 -s 0 -d 3 -p udp -e 778 -c 1 -i 6 -a 1 -x {0.0 8.0 -1 ------- null}
r -t 0.539392 -s 3 -d 6 -p udp -e 845 -c 2 -i 4 -a 2 -x {1.0 9.0 2 ------- null}
+ -t 0.539392 -s 6 -d 7 -p udp -e 845 -c 2 -i 4 -a 2 -x {1.0 9.0 2 ------- null}
- -t 0.539392 -s 6 -d 7 -p udp -e 845 -c 2 -i 4 -a 2 -x {1.0 9.0 2 ------- null}
h -t 0.539392 -s 6 -d 7 -p udp -e 845 -c 2 -i 4 -a 2 -x {1.0 9.0 -1 ------- null}
+ -t 0.552919 -s 1 -d 3 -p udp -e 934 -c 2 -i 7 -a 2 -x {1.0 9.0 3 ------- null}
- -t 0.552919 -s 1 -d 3 -p udp -e 934 -c 2 -i 7 -a 2 -x {1.0 9.0 3 ------- null}
h -t 0.552919 -s 1 -d 3 -p udp -e 934 -c 2 -i 7 -a 2 -x {1.0 9.0 -1 ------- null}
r -t 0.574565 -s 4 -d 5 -p udp -e 652 -c 1 -i 5 -a 1 -x {0.0 8.0 2 ------- null}
+ -t 0.574565 -s 5 -d 8 -p udp -e 652 -c 1 -i 5 -a 1 -x {0.0 8.0 2 ------- null}
- -t 0.581315 -s 5 -d 8 -p udp -e 652 -c 1 -i 5 -a 1 -x {0.0 8.0 2 ------- null}
h -t 0.581315 -s 5 -d 8 -p udp -e 652 -c 1 -i 5 -a 1 -x {0.0 8.0 -1 ------- null}
r -t 0.591315 -s 5 -d 8 -p udp -e 760 -c 1 -i 3 -a 1 -x {0.0 8.0 1 ------- null}
r -t 0.595727 -s 0 -d 3 -p udp -e 778 -c 1 -i 6 -a 1 -x {0.0 8.0 3 ------- null}
+ -t 0.595727 -s 3 -d 4 -p udp -e 778 -c 1 -i 6 -a 1 -x {0.0 8.0 3 ------- null}
- -t 0.595727 -s 3 -d 4 -p udp -e 778 -c 1 -i 6 -a 1 -x {0.0 8.0 3 ------- null}
h -t 0.595727 -s 3 -d 4 -p udp -e 778 -c 1 -i 6 -a 1 -x {0.0 8.0 -1 ------- null}
r -t 0.6022045 -s 6 -d 7 -p udp -e 845 -c 2 -i 4 -a 2 -x {1.0 9.0 2 ------- null}
+ -t 0.6022045 -s 7 -d 9 -p udp -e 845 -c 2 -i 4 -a 2 -x {1.0 9.0 2 ------- null}
- -t 0.6022045 -s 7 -d 9 -p udp -e 845 -c 2 -i 4 -a 2 -x {1.0 9.0 2 ------- null}
h -t 0.6022045 -s 7 -d 9 -p udp -e 845 -c 2 -i 4 -a 2 -x {1.0 9.0 -1 ------- null}
+ -t 0.60365 -s 1 -d 3 -p udp -e 634 -c 2 -i 8 -a 2 -x {1.0 9.0 4 ------- null}
- -t 0.611294 -s 1 -d 3 -p udp -e 634 -c 2 -i 8 -a 2 -x {1.0 9.0 4 ------- null}
h -t 0.611294 -s 1 -d 3 -p udp -e 634 -c 2 -i 8 -a 2 -x {1.0 9.0 -1 ------- null}
r -t 0.621294 -s 1 -d 3 -p udp -e 934 -c 2 -i 7 -a 2 -x {1.0 9.0 3 ------- null}
+ -t 0.621294 -s 3 -d 6 -p udp -e 934 -c 2 -i 7 -a 2 -x {1.0 9.0 3 ------- null}
- -t 0.621294 -s 3 -d 6 -p udp -e 934 -c 2 -i 7 -a 2 -x {1.0 9.0 3 ------- null}
h -t 0.621294 -s 3 -d 6 -p udp -e 934 -c 2 -i 7 -a 2 -x {1.0 9.0 -1 ------- null}
r -t 0.632065 -s 5 -d 8 -p udp -e 652 -c 1 -i 5 -a 1 -x {0.0 8.0 2 ------- null}
r -t 0.654352 -s 3 -d 4 -p udp -e 778 -c 1 -i 6 -a 1 -x {0.0 8.0 3 ------- null}
+ -t 0.654352 -s 4 -d 5 -p udp -e 778 -c 1 -i 6 -a 1 -x {0.0 8.0 3 ------- null}
- -t 0.654352 -s 4 -d 5 -p udp -e 778 -c 1 -i 6 -a 1 -x {0.0 8.0 3 ------- null}
h -t 0.654352 -s 4 -d 5 -p udp -e 778 -c 1 -i 6 -a 1 -x {0.0 8.0 -1 ------- null}
r -t 0.660919 -s 1 -d 3 -p udp -e 634 -c 2 -i 8 -a 2 -x {1.0 9.0 4 ------- null}
+ -t 0.660919 -s 3 -d 6 -p udp -e 634 -c 2 -i 8 -a 2 -x {1.0 9.0 4 ------- null}
r -t 0.665017 -s 7 -d 9 -p udp -e 845 -c 2 -i 4 -a 2 -x {1.0 9.0 2 ------- null}
+ -t 0.677272 -s 0 -d 3 -p udp -e 736 -c 1 -i 9 -a 1 -x {0.0 8.0 4 ------- null}
- -t 0.677272 -s 0 -d 3 -p udp -e 736 -c 1 -i 9 -a 1 -x {0.0 8.0 4 ------- null}
h -t 0.677272 -s 0 -d 3 -p udp -e 736 -c 1 -i 9 -a 1 -x {0.0 8.0 -1 ------- null}
+ -t 0.677914 -s 1 -d 3 -p udp -e 622 -c 2 -i 10 -a 2 -x {1.0 9.0 5 ------- null}
- -t 0.677914 -s 1 -d 3 -p udp -e 622 -c 2 -i 10 -a 2 -x {1.0 9.0 5 ------- null}
h -t 0.677914 -s 1 -d 3 -p udp -e 622 -c 2 -i 10 -a 2 -x {1.0 9.0 -1 ------- null}
- -t 0.679669 -s 3 -d 6 -p udp -e 634 -c 2 -i 8 -a 2 -x {1.0 9.0 4 ------- null}
h -t 0.679669 -s 3 -d 6 -p udp -e 634 -c 2 -i 8 -a 2 -x {1.0 9.0 -1 ------- null}
r -t 0.689669 -s 3 -d 6 -p udp -e 934 -c 2 -i 7 -a 2 -x {1.0 9.0 3 ------- null}
+ -t 0.689669 -s 6 -d 7 -p udp -e 934 -c 2 -i 7 -a 2 -x {1.0 9.0 3 ------- null}
- -t 0.689669 -s 6 -d 7 -p udp -e 934 -c 2 -i 7 -a 2 -x {1.0 9.0 3 ------- null}
h -t 0.689669 -s 6 -d 7 -p udp -e 934 -c 2 -i 7 -a 2 -x {1.0 9.0 -1 ------- null}
r -t 0.712977 -s 4 -d 5 -p udp -e 778 -c 1 -i 6 -a 1 -x {0.0 8.0 3 ------- null}
+ -t 0.712977 -s 5 -d 8 -p udp -e 778 -c 1 -i 6 -a 1 -x {0.0 8.0 3 ------- null}
- -t 0.712977 -s 5 -d 8 -p udp -e 778 -c 1 -i 6 -a 1 -x {0.0 8.0 3 ------- null}
h -t 0.712977 -s 5 -d 8 -p udp -e 778 -c 1 -i 6 -a 1 -x {0.0 8.0 -1 ------- null}
r -t 0.726789 -s 1 -d 3 -p udp -e 622 -c 2 -i 10 -a 2 -x {1.0 9.0 5 ------- null}
+ -t 0.726789 -s 3 -d 6 -p udp -e 622 -c 2 -i 10 -a 2 -x {1.0 9.0 5 ------- null}
- -t 0.726789 -s 3 -d 6 -p udp -e 622 -c 2 -i 10 -a 2 -x {1.0 9.0 5 ------- null}
h -t 0.726789 -s 3 -d 6 -p udp -e 622 -c 2 -i 10 -a 2 -x {1.0 9.0 -1 ------- null}
r -t 0.729294 -s 3 -d 6 -p udp -e 634 -c 2 -i 8 -a 2 -x {1.0 9.0 4 ------- null}
+ -t 0.729294 -s 6 -d 7 -p udp -e 634 -c 2 -i 8 -a 2 -x {1.0 9.0 4 ------- null}
r -t 0.733272 -s 0 -d 3 -p udp -e 736 -c 1 -i 9 -a 1 -x {0.0 8.0 4 ------- null}
+ -t 0.733272 -s 3 -d 4 -p udp -e 736 -c 1 -i 9 -a 1 -x {0.0 8.0 4 ------- null}
- -t 0.733272 -s 3 -d 4 -p udp -e 736 -c 1 -i 9 -a 1 -x {0.0 8.0 4 ------- null}
h -t 0.733272 -s 3 -d 4 -p udp -e 736 -c 1 -i 9 -a 1 -x {0.0 8.0 -1 ------- null}
- -t 0.748044 -s 6 -d 7 -p udp -e 634 -c 2 -i 8 -a 2 -x {1.0 9.0 4 ------- null}
h -t 0.748044 -s 6 -d 7 -p udp -e 634 -c 2 -i 8 -a 2 -x {1.0 9.0 -1 ------- null}
r -t 0.758044 -s 6 -d 7 -p udp -e 934 -c 2 -i 7 -a 2 -x {1.0 9.0 3 ------- null}
+ -t 0.758044 -s 7 -d 9 -p udp -e 934 -c 2 -i 7 -a 2 -x {1.0 9.0 3 ------- null}
- -t 0.758044 -s 7 -d 9 -p udp -e 934 -c 2 -i 7 -a 2 -x {1.0 9.0 3 ------- null}
h -t 0.758044 -s 7 -d 9 -p udp -e 934 -c 2 -i 7 -a 2 -x {1.0 9.0 -1 ------- null}
r -t 0.771602 -s 5 -d 8 -p udp -e 778 -c 1 -i 6 -a 1 -x {0.0 8.0 3 ------- null}
+ -t 0.774779 -s 0 -d 3 -p udp -e 835 -c 1 -i 11 -a 1 -x {0.0 8.0 5 ------- null}
- -t 0.774779 -s 0 -d 3 -p udp -e 835 -c 1 -i 11 -a 1 -x {0.0 8.0 5 ------- null}
h -t 0.774779 -s 0 -d 3 -p udp -e 835 -c 1 -i 11 -a 1 -x {0.0 8.0 -1 ------- null}
r -t 0.775664 -s 3 -d 6 -p udp -e 622 -c 2 -i 10 -a 2 -x {1.0 9.0 5 ------- null}
+ -t 0.775664 -s 6 -d 7 -p udp -e 622 -c 2 -i 10 -a 2 -x {1.0 9.0 5 ------- null}
- -t 0.787669 -s 6 -d 7 -p udp -e 622 -c 2 -i 10 -a 2 -x {1.0 9.0 5 ------- null}
h -t 0.787669 -s 6 -d 7 -p udp -e 622 -c 2 -i 10 -a 2 -x {1.0 9.0 -1 ------- null}
r -t 0.789272 -s 3 -d 4 -p udp -e 736 -c 1 -i 9 -a 1 -x {0.0 8.0 4 ------- null}
+ -t 0.789272 -s 4 -d 5 -p udp -e 736 -c 1 -i 9 -a 1 -x {0.0 8.0 4 ------- null}
- -t 0.789272 -s 4 -d 5 -p udp -e 736 -c 1 -i 9 -a 1 -x {0.0 8.0 4 ------- null}
h -t 0.789272 -s 4 -d 5 -p udp -e 736 -c 1 -i 9 -a 1 -x {0.0 8.0 -1 ------- null}
+ -t 0.791078 -s 1 -d 3 -p udp -e 536 -c 2 -i 12 -a 2 -x {1.0 9.0 6 ------- null}
- -t 0.791078 -s 1 -d 3 -p udp -e 536 -c 2 -i 12 -a 2 -x {1.0 9.0 6 ------- null}
h -t 0.791078 -s 1 -d 3 -p udp -e 536 -c 2 -i 12 -a 2 -x {1.0 9.0 -1 ------- null}
r -t 0.797669 -s 6 -d 7 -p udp -e 634 -c 2 -i 8 -a 2 -x {1.0 9.0 4 ------- null}
+ -t 0.797669 -s 7 -d 9 -p udp -e 634 -c 2 -i 8 -a 2 -x {1.0 9.0 4 ------- null}
- -t 0.816419 -s 7 -d 9 -p udp -e 634 -c 2 -i 8 -a 2 -x {1.0 9.0 4 ------- null}
h -t 0.816419 -s 7 -d 9 -p udp -e 634 -c 2 -i 8 -a 2 -x {1.0 9.0 -1 ------- null}
r -t 0.826419 -s 7 -d 9 -p udp -e 934 -c 2 -i 7 -a 2 -x {1.0 9.0 3 ------- null}
r -t 0.834578 -s 1 -d 3 -p udp -e 536 -c 2 -i 12 -a 2 -x {1.0 9.0 6 ------- null}
+ -t 0.834578 -s 3 -d 6 -p udp -e 536 -c 2 -i 12 -a 2 -x {1.0 9.0 6 ------- null}
- -t 0.834578 -s 3 -d 6 -p udp -e 536 -c 2 -i 12 -a 2 -x {1.0 9.0 6 ------- null}
h -t 0.834578 -s 3 -d 6 -p udp -e 536 -c 2 -i 12 -a 2 -x {1.0 9.0 -1 ------- null}
r -t 0.836544 -s 6 -d 7 -p udp -e 622 -c 2 -i 10 -a 2 -x {1.0 9.0 5 ------- null}
+ -t 0.836544 -s 7 -d 9 -p udp -e 622 -c 2 -i 10 -a 2 -x {1.0 9.0 5 ------- null}
r -t 0.8369665 -s 0 -d 3 -p udp -e 835 -c 1 -i 11 -a 1 -x {0.0 8.0 5 ------- null}
+ -t 0.8369665 -s 3 -d 4 -p udp -e 835 -c 1 -i 11 -a 1 -x {0.0 8.0 5 ------- null}
- -t 0.8369665 -s 3 -d 4 -p udp -e 835 -c 1 -i 11 -a 1 -x {0.0 8.0 5 ------- null}
h -t 0.8369665 -s 3 -d 4 -p udp -e 835 -c 1 -i 11 -a 1 -x {0.0 8.0 -1 ------- null}
+ -t 0.842266 -s 1 -d 3 -p udp -e 598 -c 2 -i 13 -a 2 -x {1.0 9.0 7 ------- null}
- -t 0.842266 -s 1 -d 3 -p udp -e 598 -c 2 -i 13 -a 2 -x {1.0 9.0 7 ------- null}
h -t 0.842266 -s 1 -d 3 -p udp -e 598 -c 2 -i 13 -a 2 -x {1.0 9.0 -1 ------- null}
r -t 0.845272 -s 4 -d 5 -p udp -e 736 -c 1 -i 9 -a 1 -x {0.0 8.0 4 ------- null}
+ -t 0.845272 -s 5 -d 8 -p udp -e 736 -c 1 -i 9 -a 1 -x {0.0 8.0 4 ------- null}
- -t 0.845272 -s 5 -d 8 -p udp -e 736 -c 1 -i 9 -a 1 -x {0.0 8.0 4 ------- null}
h -t 0.845272 -s 5 -d 8 -p udp -e 736 -c 1 -i 9 -a 1 -x {0.0 8.0 -1 ------- null}
- -t 0.856044 -s 7 -d 9 -p udp -e 622 -c 2 -i 10 -a 2 -x {1.0 9.0 5 ------- null}
h -t 0.856044 -s 7 -d 9 -p udp -e 622 -c 2 -i 10 -a 2 -x {1.0 9.0 -1 ------- null}
r -t 0.866044 -s 7 -d 9 -p udp -e 634 -c 2 -i 8 -a 2 -x {1.0 9.0 4 ------- null}
r -t 0.878078 -s 3 -d 6 -p udp -e 536 -c 2 -i 12 -a 2 -x {1.0 9.0 6 ------- null}
+ -t 0.878078 -s 6 -d 7 -p udp -e 536 -c 2 -i 12 -a 2 -x {1.0 9.0 6 ------- null}
- -t 0.878078 -s 6 -d 7 -p udp -e 536 -c 2 -i 12 -a 2 -x {1.0 9.0 6 ------- null}
h -t 0.878078 -s 6 -d 7 -p udp -e 536 -c 2 -i 12 -a 2 -x {1.0 9.0 -1 ------- null}
r -t 0.889641 -s 1 -d 3 -p udp -e 598 -c 2 -i 13 -a 2 -x {1.0 9.0 7 ------- null}
+ -t 0.889641 -s 3 -d 6 -p udp -e 598 -c 2 -i 13 -a 2 -x {1.0 9.0 7 ------- null}
- -t 0.889641 -s 3 -d 6 -p udp -e 598 -c 2 -i 13 -a 2 -x {1.0 9.0 7 ------- null}
h -t 0.889641 -s 3 -d 6 -p udp -e 598 -c 2 -i 13 -a 2 -x {1.0 9.0 -1 ------- null}
r -t 0.899154 -s 3 -d 4 -p udp -e 835 -c 1 -i 11 -a 1 -x {0.0 8.0 5 ------- null}
+ -t 0.899154 -s 4 -d 5 -p udp -e 835 -c 1 -i 11 -a 1 -x {0.0 8.0 5 ------- null}
- -t 0.899154 -s 4 -d 5 -p udp -e 835 -c 1 -i 11 -a 1 -x {0.0 8.0 5 ------- null}
h -t 0.899154 -s 4 -d 5 -p udp -e 835 -c 1 -i 11 -a 1 -x {0.0 8.0 -1 ------- null}
r -t 0.901272 -s 5 -d 8 -p udp -e 736 -c 1 -i 9 -a 1 -x {0.0 8.0 4 ------- null}
r -t 0.904919 -s 7 -d 9 -p udp -e 622 -c 2 -i 10 -a 2 -x {1.0 9.0 5 ------- null}
+ -t 0.91756 -s 1 -d 3 -p udp -e 507 -c 2 -i 14 -a 2 -x {1.0 9.0 8 ------- null}
- -t 0.91756 -s 1 -d 3 -p udp -e 507 -c 2 -i 14 -a 2 -x {1.0 9.0 8 ------- null}
h -t 0.91756 -s 1 -d 3 -p udp -e 507 -c 2 -i 14 -a 2 -x {1.0 9.0 -1 ------- null}
r -t 0.921578 -s 6 -d 7 -p udp -e 536 -c 2 -i 12 -a 2 -x {1.0 9.0 6 ------- null}
+ -t 0.921578 -s 7 -d 9 -p udp -e 536 -c 2 -i 12 -a 2 -x {1.0 9.0 6 ------- null}
- -t 0.921578 -s 7 -d 9 -p udp -e 536 -c 2 -i 12 -a 2 -x {1.0 9.0 6 ------- null}
h -t 0.921578 -s 7 -d 9 -p udp -e 536 -c 2 -i 12 -a 2 -x {1.0 9.0 -1 ------- null}
+ -t 0.922738 -s 0 -d 3 -p udp -e 756 -c 1 -i 15 -a 1 -x {0.0 8.0 6 ------- null}
- -t 0.922738 -s 0 -d 3 -p udp -e 756 -c 1 -i 15 -a 1 -x {0.0 8.0 6 ------- null}
h -t 0.922738 -s 0 -d 3 -p udp -e 756 -c 1 -i 15 -a 1 -x {0.0 8.0 -1 ------- null}
r -t 0.937016 -s 3 -d 6 -p udp -e 598 -c 2 -i 13 -a 2 -x {1.0 9.0 7 ------- null}
+ -t 0.937016 -s 6 -d 7 -p udp -e 598 -c 2 -i 13 -a 2 -x {1.0 9.0 7 ------- null}
- -t 0.937016 -s 6 -d 7 -p udp -e 598 -c 2 -i 13 -a 2 -x {1.0 9.0 7 ------- null}
h -t 0.937016 -s 6 -d 7 -p udp -e 598 -c 2 -i 13 -a 2 -x {1.0 9.0 -1 ------- null}
r -t 0.9592475 -s 1 -d 3 -p udp -e 507 -c 2 -i 14 -a 2 -x {1.0 9.0 8 ------- null}
+ -t 0.9592475 -s 3 -d 6 -p udp -e 507 -c 2 -i 14 -a 2 -x {1.0 9.0 8 ------- null}
- -t 0.9592475 -s 3 -d 6 -p udp -e 507 -c 2 -i 14 -a 2 -x {1.0 9.0 8 ------- null}
h -t 0.9592475 -s 3 -d 6 -p udp -e 507 -c 2 -i 14 -a 2 -x {1.0 9.0 -1 ------- null}
r -t 0.9613415 -s 4 -d 5 -p udp -e 835 -c 1 -i 11 -a 1 -x {0.0 8.0 5 ------- null}
+ -t 0.9613415 -s 5 -d 8 -p udp -e 835 -c 1 -i 11 -a 1 -x {0.0 8.0 5 ------- null}
- -t 0.9613415 -s 5 -d 8 -p udp -e 835 -c 1 -i 11 -a 1 -x {0.0 8.0 5 ------- null}
h -t 0.9613415 -s 5 -d 8 -p udp -e 835 -c 1 -i 11 -a 1 -x {0.0 8.0 -1 ------- null}
r -t 0.965078 -s 7 -d 9 -p udp -e 536 -c 2 -i 12 -a 2 -x {1.0 9.0 6 ------- null}
+ -t 0.973194 -s 1 -d 3 -p udp -e 863 -c 2 -i 16 -a 2 -x {1.0 9.0 9 ------- null}
- -t 0.973194 -s 1 -d 3 -p udp -e 863 -c 2 -i 16 -a 2 -x {1.0 9.0 9 ------- null}
h -t 0.973194 -s 1 -d 3 -p udp -e 863 -c 2 -i 16 -a 2 -x {1.0 9.0 -1 ------- null}
r -t 0.979988 -s 0 -d 3 -p udp -e 756 -c 1 -i 15 -a 1 -x {0.0 8.0 6 ------- null}
+ -t 0.979988 -s 3 -d 4 -p udp -e 756 -c 1 -i 15 -a 1 -x {0.0 8.0 6 ------- null}
- -t 0.979988 -s 3 -d 4 -p udp -e 756 -c 1 -i 15 -a 1 -x {0.0 8.0 6 ------- null}
h -t 0.979988 -s 3 -d 4 -p udp -e 756 -c 1 -i 15 -a 1 -x {0.0 8.0 -1 ------- null}
r -t 0.984391 -s 6 -d 7 -p udp -e 598 -c 2 -i 13 -a 2 -x {1.0 9.0 7 ------- null}
+ -t 0.984391 -s 7 -d 9 -p udp -e 598 -c 2 -i 13 -a 2 -x {1.0 9.0 7 ------- null}
- -t 0.984391 -s 7 -d 9 -p udp -e 598 -c 2 -i 13 -a 2 -x {1.0 9.0 7 ------- null}
h -t 0.984391 -s 7 -d 9 -p udp -e 598 -c 2 -i 13 -a 2 -x {1.0 9.0 -1 ------- null}
r -t 1.000935 -s 3 -d 6 -p udp -e 507 -c 2 -i 14 -a 2 -x {1.0 9.0 8 ------- null}
+ -t 1.000935 -s 6 -d 7 -p udp -e 507 -c 2 -i 14 -a 2 -x {1.0 9.0 8 ------- null}
- -t 1.000935 -s 6 -d 7 -p udp -e 507 -c 2 -i 14 -a 2 -x {1.0 9.0 8 ------- null}
h -t 1.000935 -s 6 -d 7 -p udp -e 507 -c 2 -i 14 -a 2 -x {1.0 9.0 -1 ------- null}
+ -t 1.00731 -s 0 -d 3 -p udp -e 668 -c 1 -i 17 -a 1 -x {0.0 8.0 7 ------- null}
- -t 1.00731 -s 0 -d 3 -p udp -e 668 -c 1 -i 17 -a 1 -x {0.0 8.0 7 ------- null}
h -t 1.00731 -s 0 -d 3 -p udp -e 668 -c 1 -i 17 -a 1 -x {0.0 8.0 -1 ------- null}
r -t 1.023529 -s 5 -d 8 -p udp -e 835 -c 1 -i 11 -a 1 -x {0.0 8.0 5 ------- null}
r -t 1.031766 -s 7 -d 9 -p udp -e 598 -c 2 -i 13 -a 2 -x {1.0 9.0 7 ------- null}
r -t 1.0371315 -s 1 -d 3 -p udp -e 863 -c 2 -i 16 -a 2 -x {1.0 9.0 9 ------- null}
+ -t 1.0371315 -s 3 -d 6 -p udp -e 863 -c 2 -i 16 -a 2 -x {1.0 9.0 9 ------- null}
- -t 1.0371315 -s 3 -d 6 -p udp -e 863 -c 2 -i 16 -a 2 -x {1.0 9.0 9 ------- null}
h -t 1.0371315 -s 3 -d 6 -p udp -e 863 -c 2 -i 16 -a 2 -x {1.0 9.0 -1 ------- null}
r -t 1.037238 -s 3 -d 4 -p udp -e 756 -c 1 -i 15 -a 1 -x {0.0 8.0 6 ------- null}
+ -t 1.037238 -s 4 -d 5 -p udp -e 756 -c 1 -i 15 -a 1 -x {0.0 8.0 6 ------- null}
- -t 1.037238 -s 4 -d 5 -p udp -e 756 -c 1 -i 15 -a 1 -x {0.0 8.0 6 ------- null}
h -t 1.037238 -s 4 -d 5 -p udp -e 756 -c 1 -i 15 -a 1 -x {0.0 8.0 -1 ------- null}
r -t 1.0426225 -s 6 -d 7 -p udp -e 507 -c 2 -i 14 -a 2 -x {1.0 9.0 8 ------- null}
+ -t 1.0426225 -s 7 -d 9 -p udp -e 507 -c 2 -i 14 -a 2 -x {1.0 9.0 8 ------- null}
- -t 1.0426225 -s 7 -d 9 -p udp -e 507 -c 2 -i 14 -a 2 -x {1.0 9.0 8 ------- null}
h -t 1.0426225 -s 7 -d 9 -p udp -e 507 -c 2 -i 14 -a 2 -x {1.0 9.0 -1 ------- null}
r -t 1.05906 -s 0 -d 3 -p udp -e 668 -c 1 -i 17 -a 1 -x {0.0 8.0 7 ------- null}
+ -t 1.05906 -s 3 -d 4 -p udp -e 668 -c 1 -i 17 -a 1 -x {0.0 8.0 7 ------- null}
- -t 1.05906 -s 3 -d 4 -p udp -e 668 -c 1 -i 17 -a 1 -x {0.0 8.0 7 ------- null}
h -t 1.05906 -s 3 -d 4 -p udp -e 668 -c 1 -i 17 -a 1 -x {0.0 8.0 -1 ------- null}
+ -t 1.064666 -s 0 -d 3 -p udp -e 908 -c 1 -i 18 -a 1 -x {0.0 8.0 8 ------- null}
- -t 1.064666 -s 0 -d 3 -p udp -e 908 -c 1 -i 18 -a 1 -x {0.0 8.0 8 ------- null}
h -t 1.064666 -s 0 -d 3 -p udp -e 908 -c 1 -i 18 -a 1 -x {0.0 8.0 -1 ------- null}
r -t 1.08431 -s 7 -d 9 -p udp -e 507 -c 2 -i 14 -a 2 -x {1.0 9.0 8 ------- null}
r -t 1.094488 -s 4 -d 5 -p udp -e 756 -c 1 -i 15 -a 1 -x {0.0 8.0 6 ------- null}
+ -t 1.094488 -s 5 -d 8 -p udp -e 756 -c 1 -i 15 -a 1 -x {0.0 8.0 6 ------- null}
- -t 1.094488 -s 5 -d 8 -p udp -e 756 -c 1 -i 15 -a 1 -x {0.0 8.0 6 ------- null}
h -t 1.094488 -s 5 -d 8 -p udp -e 756 -c 1 -i 15 -a 1 -x {0.0 8.0 -1 ------- null}
r -t 1.101069 -s 3 -d 6 -p udp -e 863 -c 2 -i 16 -a 2 -x {1.0 9.0 9 ------- null}
+ -t 1.101069 -s 6 -d 7 -p udp -e 863 -c 2 -i 16 -a 2 -x {1.0 9.0 9 ------- null}
- -t 1.101069 -s 6 -d 7 -p udp -e 863 -c 2 -i 16 -a 2 -x {1.0 9.0 9 ------- null}
h -t 1.101069 -s 6 -d 7 -p udp -e 863 -c 2 -i 16 -a 2 -x {1.0 9.0 -1 ------- null}
+ -t 1.106925 -s 1 -d 3 -p udp -e 851 -c 2 -i 19 -a 2 -x {1.0 9.0 10 ------- null}
- -t 1.106925 -s 1 -d 3 -p udp -e 851 -c 2 -i 19 -a 2 -x {1.0 9.0 10 ------- null}
h -t 1.106925 -s 1 -d 3 -p udp -e 851 -c 2 -i 19 -a 2 -x {1.0 9.0 -1 ------- null}
r -t 1.11081 -s 3 -d 4 -p udp -e 668 -c 1 -i 17 -a 1 -x {0.0 8.0 7 ------- null}
+ -t 1.11081 -s 4 -d 5 -p udp -e 668 -c 1 -i 17 -a 1 -x {0.0 8.0 7 ------- null}
- -t 1.11081 -s 4 -d 5 -p udp -e 668 -c 1 -i 17 -a 1 -x {0.0 8.0 7 ------- null}
h -t 1.11081 -s 4 -d 5 -p udp -e 668 -c 1 -i 17 -a 1 -x {0.0 8.0 -1 ------- null}
r -t 1.131416 -s 0 -d 3 -p udp -e 908 -c 1 -i 18 -a 1 -x {0.0 8.0 8 ------- null}
+ -t 1.131416 -s 3 -d 4 -p udp -e 908 -c 1 -i 18 -a 1 -x {0.0 8.0 8 ------- null}
- -t 1.131416 -s 3 -d 4 -p udp -e 908 -c 1 -i 18 -a 1 -x {0.0 8.0 8 ------- null}
h -t 1.131416 -s 3 -d 4 -p udp -e 908 -c 1 -i 18 -a 1 -x {0.0 8.0 -1 ------- null}
+ -t 1.151151 -s 0 -d 3 -p udp -e 653 -c 1 -i 20 -a 1 -x {0.0 8.0 9 ------- null}
- -t 1.151151 -s 0 -d 3 -p udp -e 653 -c 1 -i 20 -a 1 -x {0.0 8.0 9 ------- null}
h -t 1.151151 -s 0 -d 3 -p udp -e 653 -c 1 -i 20 -a 1 -x {0.0 8.0 -1 ------- null}
r -t 1.151738 -s 5 -d 8 -p udp -e 756 -c 1 -i 15 -a 1 -x {0.0 8.0 6 ------- null}
r -t 1.16256 -s 4 -d 5 -p udp -e 668 -c 1 -i 17 -a 1 -x {0.0 8.0 7 ------- null}
+ -t 1.16256 -s 5 -d 8 -p udp -e 668 -c 1 -i 17 -a 1 -x {0.0 8.0 7 ------- null}
- -t 1.16256 -s 5 -d 8 -p udp -e 668 -c 1 -i 17 -a 1 -x {0.0 8.0 7 ------- null}
h -t 1.16256 -s 5 -d 8 -p udp -e 668 -c 1 -i 17 -a 1 -x {0.0 8.0 -1 ------- null}
r -t 1.1650065 -s 6 -d 7 -p udp -e 863 -c 2 -i 16 -a 2 -x {1.0 9.0 9 ------- null}
+ -t 1.1650065 -s 7 -d 9 -p udp -e 863 -c 2 -i 16 -a 2 -x {1.0 9.0 9 ------- null}
- -t 1.1650065 -s 7 -d 9 -p udp -e 863 -c 2 -i 16 -a 2 -x {1.0 9.0 9 ------- null}
h -t 1.1650065 -s 7 -d 9 -p udp -e 863 -c 2 -i 16 -a 2 -x {1.0 9.0 -1 ------- null}
r -t 1.1701125 -s 1 -d 3 -p udp -e 851 -c 2 -i 19 -a 2 -x {1.0 9.0 10 ------- null}
+ -t 1.1701125 -s 3 -d 6 -p udp -e 851 -c 2 -i 19 -a 2 -x {1.0 9.0 10 ------- null}
- -t 1.1701125 -s 3 -d 6 -p udp -e 851 -c 2 -i 19 -a 2 -x {1.0 9.0 10 ------- null}
h -t 1.1701125 -s 3 -d 6 -p udp -e 851 -c 2 -i 19 -a 2 -x {1.0 9.0 -1 ------- null}
r -t 1.198166 -s 3 -d 4 -p udp -e 908 -c 1 -i 18 -a 1 -x {0.0 8.0 8 ------- null}
+ -t 1.198166 -s 4 -d 5 -p udp -e 908 -c 1 -i 18 -a 1 -x {0.0 8.0 8 ------- null}
- -t 1.198166 -s 4 -d 5 -p udp -e 908 -c 1 -i 18 -a 1 -x {0.0 8.0 8 ------- null}
h -t 1.198166 -s 4 -d 5 -p udp -e 908 -c 1 -i 18 -a 1 -x {0.0 8.0 -1 ------- null}
r -t 1.2019635 -s 0 -d 3 -p udp -e 653 -c 1 -i 20 -a 1 -x {0.0 8.0 9 ------- null}
+ -t 1.2019635 -s 3 -d 4 -p udp -e 653 -c 1 -i 20 -a 1 -x {0.0 8.0 9 ------- null}
- -t 1.2019635 -s 3 -d 4 -p udp -e 653 -c 1 -i 20 -a 1 -x {0.0 8.0 9 ------- null}
h -t 1.2019635 -s 3 -d 4 -p udp -e 653 -c 1 -i 20 -a 1 -x {0.0 8.0 -1 ------- null}
r -t 1.21431 -s 5 -d 8 -p udp -e 668 -c 1 -i 17 -a 1 -x {0.0 8.0 7 ------- null}
r -t 1.228944 -s 7 -d 9 -p udp -e 863 -c 2 -i 16 -a 2 -x {1.0 9.0 9 ------- null}
r -t 1.2333 -s 3 -d 6 -p udp -e 851 -c 2 -i 19 -a 2 -x {1.0 9.0 10 ------- null}
+ -t 1.2333 -s 6 -d 7 -p udp -e 851 -c 2 -i 19 -a 2 -x {1.0 9.0 10 ------- null}
- -t 1.2333 -s 6 -d 7 -p udp -e 851 -c 2 -i 19 -a 2 -x {1.0 9.0 10 ------- null}
h -t 1.2333 -s 6 -d 7 -p udp -e 851 -c 2 -i 19 -a 2 -x {1.0 9.0 -1 ------- null}
+ -t 1.238423 -s 1 -d 3 -p udp -e 704 -c 2 -i 21 -a 2 -x {1.0 9.0 11 ------- null}
- -t 1.238423 -s 1 -d 3 -p udp -e 704 -c 2 -i 21 -a 2 -x {1.0 9.0 11 ------- null}
h -t 1.238423 -s 1 -d 3 -p udp -e 704 -c 2 -i 21 -a 2 -x {1.0 9.0 -1 ------- null}
r -t 1.252776 -s 3 -d 4 -p udp -e 653 -c 1 -i 20 -a 1 -x {0.0 8.0 9 ------- null}
+ -t 1.252776 -s 4 -d 5 -p udp -e 653 -c 1 -i 20 -a 1 -x {0.0 8.0 9 ------- null}
- -t 1.254916 -s 4 -d 5 -p udp -e 653 -c 1 -i 20 -a 1 -x {0.0 8.0 9 ------- null}
h -t 1.254916 -s 4 -d 5 -p udp -e 653 -c 1 -i 20 -a 1 -x {0.0 8.0 -1 ------- null}
r -t 1.264916 -s 4 -d 5 -p udp -e 908 -c 1 -i 18 -a 1 -x {0.0 8.0 8 ------- null}
+ -t 1.264916 -s 5 -d 8 -p udp -e 908 -c 1 -i 18 -a 1 -x {0.0 8.0 8 ------- null}
- -t 1.264916 -s 5 -d 8 -p udp -e 908 -c 1 -i 18 -a 1 -x {0.0 8.0 8 ------- null}
h -t 1.264916 -s 5 -d 8 -p udp -e 908 -c 1 -i 18 -a 1 -x {0.0 8.0 -1 ------- null}
+ -t 1.270214 -s 0 -d 3 -p udp -e 923 -c 1 -i 22 -a 1 -x {0.0 8.0 10 ------- null}
- -t 1.270214 -s 0 -d 3 -p udp -e 923 -c 1 -i 22 -a 1 -x {0.0 8.0 10 ------- null}
h -t 1.270214 -s 0 -d 3 -p udp -e 923 -c 1 -i 22 -a 1 -x {0.0 8.0 -1 ------- null}
r -t 1.292423 -s 1 -d 3 -p udp -e 704 -c 2 -i 21 -a 2 -x {1.0 9.0 11 ------- null}
+ -t 1.292423 -s 3 -d 6 -p udp -e 704 -c 2 -i 21 -a 2 -x {1.0 9.0 11 ------- null}
- -t 1.292423 -s 3 -d 6 -p udp -e 704 -c 2 -i 21 -a 2 -x {1.0 9.0 11 ------- null}
h -t 1.292423 -s 3 -d 6 -p udp -e 704 -c 2 -i 21 -a 2 -x {1.0 9.0 -1 ------- null}
r -t 1.2964875 -s 6 -d 7 -p udp -e 851 -c 2 -i 19 -a 2 -x {1.0 9.0 10 ------- null}
+ -t 1.2964875 -s 7 -d 9 -p udp -e 851 -c 2 -i 19 -a 2 -x {1.0 9.0 10 ------- null}
- -t 1.2964875 -s 7 -d 9 -p udp -e 851 -c 2 -i 19 -a 2 -x {1.0 9.0 10 ------- null}
h -t 1.2964875 -s 7 -d 9 -p udp -e 851 -c 2 -i 19 -a 2 -x {1.0 9.0 -1 ------- null}
r -t 1.3057285 -s 4 -d 5 -p udp -e 653 -c 1 -i 20 -a 1 -x {0.0 8.0 9 ------- null}
+ -t 1.3057285 -s 5 -d 8 -p udp -e 653 -c 1 -i 20 -a 1 -x {0.0 8.0 9 ------- null}
- -t 1.321666 -s 5 -d 8 -p udp -e 653 -c 1 -i 20 -a 1 -x {0.0 8.0 9 ------- null}
h -t 1.321666 -s 5 -d 8 -p udp -e 653 -c 1 -i 20 -a 1 -x {0.0 8.0 -1 ------- null}
r -t 1.331666 -s 5 -d 8 -p udp -e 908 -c 1 -i 18 -a 1 -x {0.0 8.0 8 ------- null}
r -t 1.3379015 -s 0 -d 3 -p udp -e 923 -c 1 -i 22 -a 1 -x {0.0 8.0 10 ------- null}
+ -t 1.3379015 -s 3 -d 4 -p udp -e 923 -c 1 -i 22 -a 1 -x {0.0 8.0 10 ------- null}
- -t 1.3379015 -s 3 -d 4 -p udp -e 923 -c 1 -i 22 -a 1 -x {0.0 8.0 10 ------- null}
h -t 1.3379015 -s 3 -d 4 -p udp -e 923 -c 1 -i 22 -a 1 -x {0.0 8.0 -1 ------- null}