V -t * -v 1.0a5 -a 0
A -t * -n 1 -p 0 -o 0x7fffffff -c 30 -a 1
A -t * -h 1 -m 1073741823 -s 0
c -t * -i 1 -n Red
c -t * -i 2 -n Green
n -t * -a 8 -s 8 -S UP -v circle -c black -i black
n -t * -a 4 -s 4 -S UP -v circle -c black -i black
n -t * -a 0 -s 0 -S UP -v circle -c black -i black
n -t * -a 10 -s 10 -S UP -v circle -c black -i black
n -t * -a 9 -s 9 -S UP -v circle -c black -i black
n -t * -a 5 -s 5 -S UP -v circle -c black -i black
n -t * -a 1 -s 1 -S UP -v circle -c black -i black
n -t * -a 6 -s 6 -S UP -v circle -c black -i black
n -t * -a 2 -s 2 -S UP -v circle -c black -i black
n -t * -a 7 -s 7 -S UP -v circle -c black -i black
n -t * -a 3 -s 3 -S UP -v circle -c black -i black
l -t * -s 3 -d 0 -S UP -r 128000 -D 0.01 -c black -o left-up
l -t * -s 3 -d 1 -S UP -r 128000 -D 0.01 -c black -o left
l -t * -s 3 -d 2 -S UP -r 128000 -D 0.01 -c black -o left-down
l -t * -s 3 -d 4 -S UP -r 128000 -D 0.01 -c black -o right-up
l -t * -s 3 -d 6 -S UP -r 128000 -D 0.01 -c black -o right-down
l -t * -s 4 -d 5 -S UP -r 128000 -D 0.01 -c black -o right
l -t * -s 5 -d 8 -S UP -r 128000 -D 0.01 -c black -o right
l -t * -s 6 -d 7 -S UP -r 128000 -D 0.01 -c black -o right
l -t * -s 5 -d 7 -S UP -r 128000 -D 0.01 -c black -o down
l -t * -s 7 -d 9 -S UP -r 128000 -D 0.01 -c black -o right
l -t * -s 7 -d 10 -S UP -r 128000 -D 0.01 -c black -o down
q -t * -s 3 -d 4 -a 0.5
q -t * -s 4 -d 3 -a 0.5
+ -t 0.1 -s 0 -d 3 -p tcp -e 40 -c 1 -i 0 -a 1 -x {0.0 8.0 0 ------- null}
- -t 0.1 -s 0 -d 3 -p tcp -e 40 -c 1 -i 0 -a 1 -x {0.0 8.0 0 ------- null}
h -t 0.1 -s 0 -d 3 -p tcp -e 40 -c 1 -i 0 -a 1 -x {0.0 8.0 -1 ------- null}
r -t 0.1125 -s 0 -d 3 -p tcp -e 40 -c 1 -i 0 -a 1 -x {0.0 8.0 0 ------- null}
+ -t 0.1125 -s 3 -d 4 -p tcp -e 40 -c 1 -i 0 -a 1 -x {0.0 8.0 0 ------- null}
- -t 0.1125 -s 3 -d 4 -p tcp -e 40 -c 1 -i 0 -a 1 -x {0.0 8.0 0 ------- null}
h -t 0.1125 -s 3 -d 4 -p tcp -e 40 -c 1 -i 0 -a 1 -x {0.0 8.0 -1 ------- null}
r -t 0.125 -s 3 -d 4 -p tcp -e 40 -c 1 -i 0 -a 1 -x {0.0 8.0 0 ------- null}
+ -t 0.125 -s 4 -d 5 -p tcp -e 40 -c 1 -i 0 -a 1 -x {0.0 8.0 0 ------- null}
- -t 0.125 -s 4 -d 5 -p tcp -e 40 -c 1 -i 0 -a 1 -x {0.0 8.0 0 ------- null}
h -t 0.125 -s 4 -d 5 -p tcp -e 40 -c 1 -i 0 -a 1 -x {0.0 8.0 -1 ------- null}
r -t 0.1375 -s 4 -d 5 -p tcp -e 40 -c 1 -i 0 -a 1 -x {0.0 8.0 0 ------- null}
+ -t 0.1375 -s 5 -d 8 -p tcp -e 40 -c 1 -i 0 -a 1 -x {0.0 8.0 0 ------- null}
- -t 0.1375 -s 5 -d 8 -p tcp -e 40 -c 1 -i 0 -a 1 -x {0.0 8.0 0 ------- null}
h -t 0.1375 -s 5 -d 8 -p tcp -e 40 -c 1 -i 0 -a 1 -x {0.0 8.0 -1 ------- null}
r -t 0.15 -s 5 -d 8 -p tcp -e 40 -c 1 -i 0 -a 1 -x {0.0 8.0 0 ------- null}
+ -t 0.15 -s 8 -d 5 -p ack -e 40 -c 1 -i 1 -a 1 -x {8.0 0.0 0 ------- null}
- -t 0.15 -s 8 -d 5 -p ack -e 40 -c 1 -i 1 -a 1 -x {8.0 0.0 0 ------- null}
h -t 0.15 -s 8 -d 5 -p ack -e 40 -c 1 -i 1 -a 1 -x {8.0 0.0 -1 ------- null}
r -t 0.1625 -s 8 -d 5 -p ack -e 40 -c 1 -i 1 -a 1 -x {8.0 0.0 0 ------- null}
+ -t 0.1625 -s 5 -d 4 -p ack -e 40 -c 1 -i 1 -a 1 -x {8.0 0.0 0 ------- null}
- -t 0.1625 -s 5 -d 4 -p ack -e 40 -c 1 -i 1 -a 1 -x {8.0 0.0 0 ------- null}
h -t 0.1625 -s 5 -d 4 -p ack -e 40 -c 1 -i 1 -a 1 -x {8.0 0.0 -1 ------- null}
r -t 0.175 -s 5 -d 4 -p ack -e 40 -c 1 -i 1 -a 1 -x {8.0 0.0 0 ------- null}
+ -t 0.175 -s 4 -d 3 -p ack -e 40 -c 1 -i 1 -a 1 -x {8.0 0.0 0 ------- null}
- -t 0.175 -s 4 -d 3 -p ack -e 40 -c 1 -i 1 -a 1 -x {8.0 0.0 0 ------- null}
h -t 0.175 -s 4 -d 3 -p ack -e 40 -c 1 -i 1 -a 1 -x {8.0 0.0 -1 ------- null}
r -t 0.1875 -s 4 -d 3 -p ack -e 40 -c 1 -i 1 -a 1 -x {8.0 0.0 0 ------- null}
+ -t 0.1875 -s 3 -d 0 -p ack -e 40 -c 1 -i 1 -a 1 -x {8.0 0.0 0 ------- null}
- -t 0.1875 -s 3 -d 0 -p ack -e 40 -c 1 -i 1 -a 1 -x {8.0 0.0 0 ------- null}
h -t 0.1875 -s 3 -d 0 -p ack -e 40 -c 1 -i 1 -a 1 -x {8.0 0.0 -1 ------- null}
r -t 0.2 -s 3 -d 0 -p ack -e 40 -c 1 -i 1 -a 1 -x {8.0 0.0 0 ------- null}
+ -t 0.2 -s 0 -d 3 -p tcp -e 140 -c 1 -i 2 -a 1 -x {0.0 8.0 1 ------- null}
- -t 0.2 -s 0 -d 3 -p tcp -e 140 -c 1 -i 2 -a 1 -x {0.0 8.0 1 ------- null}
h -t 0.2 -s 0 -d 3 -p tcp -e 140 -c 1 -i 2 -a 1 -x {0.0 8.0 -1 ------- null}
+ -t 0.2 -s 0 -d 3 -p tcp -e 140 -c 1 -i 3 -a 1 -x {0.0 8.0 2 ------- null}
- -t 0.20875 -s 0 -d 3 -p tcp -e 140 -c 1 -i 3 -a 1 -x {0.0 8.0 2 ------- null}
h -t 0.20875 -s 0 -d 3 -p tcp -e 140 -c 1 -i 3 -a 1 -x {0.0 8.0 -1 ------- null}
+ -t 0.21636634648457 -s 1 -d 3 -p tcp -e 40 -c 2 -i 4 -a 2 -x {1.0 9.0 0 ------- null}
- -t 0.21636634648457 -s 1 -d 3 -p tcp -e 40 -c 2 -i 4 -a 2 -x {1.0 9.0 0 ------- null}
h -t 0.21636634648457 -s 1 -d 3 -p tcp -e 40 -c 2 -i 4 -a 2 -x {1.0 9.0 -1 ------- null}
r -t 0.21875 -s 0 -d 3 -p tcp -e 140 -c 1 -i 2 -a 1 -x {0.0 8.0 1 ------- null}
+ -t 0.21875 -s 3 -d 4 -p tcp -e 140 -c 1 -i 2 -a 1 -x {0.0 8.0 1 ------- null}
- -t 0.21875 -s 3 -d 4 -p tcp -e 140 -c 1 -i 2 -a 1 -x {0.0 8.0 1 ------- null}
h -t 0.21875 -s 3 -d 4 -p tcp -e 140 -c 1 -i 2 -a 1 -x {0.0 8.0 -1 ------- null}
r -t 0.2275 -s 0 -d 3 -p tcp -e 140 -c 1 -i 3 -a 1 -x {0.0 8.0 2 ------- null}
+ -t 0.2275 -s 3 -d 4 -p tcp -e 140 -c 1 -i 3 -a 1 -x {0.0 8.0 2 ------- null}
- -t 0.2275 -s 3 -d 4 -p tcp -e 140 -c 1 -i 3 -a 1 -x {0.0 8.0 2 ------- null}
h -t 0.2275 -s 3 -d 4 -p tcp -e 140 -c 1 -i 3 -a 1 -x {0.0 8.0 -1 ------- null}
r -t 0.22886634648457 -s 1 -d 3 -p tcp -e 40 -c 2 -i 4 -a 2 -x {1.0 9.0 0 ------- null}
+ -t 0.22886634648457 -s 3 -d 6 -p tcp -e 40 -c 2 -i 4 -a 2 -x {1.0 9.0 0 ------- null}
- -t 0.22886634648457 -s 3 -d 6 -p tcp -e 40 -c 2 -i 4 -a 2 -x {1.0 9.0 0 ------- null}
h -t 0.22886634648457 -s 3 -d 6 -p tcp -e 40 -c 2 -i 4 -a 2 -x {1.0 9.0 -1 ------- null}
r -t 0.2375 -s 3 -d 4 -p tcp -e 140 -c 1 -i 2 -a 1 -x {0.0 8.0 1 ------- null}
+ -t 0.2375 -s 4 -d 5 -p tcp -e 140 -c 1 -i 2 -a 1 -x {0.0 8.0 1 ------- null}
- -t 0.2375 -s 4 -d 5 -p tcp -e 140 -c 1 -i 2 -a 1 -x {0.0 8.0 1 ------- null}
h -t 0.2375 -s 4 -d 5 -p tcp -e 140 -c 1 -i 2 -a 1 -x {0.0 8.0 -1 ------- null}
r -t 0.24136634648457 -s 3 -d 6 -p tcp -e 40 -c 2 -i 4 -a 2 -x {1.0 9.0 0 ------- null}
+ -t 0.24136634648457 -s 6 -d 7 -p tcp -e 40 -c 2 -i 4 -a 2 -x {1.0 9.0 0 ------- null}
- -t 0.24136634648457 -s 6 -d 7 -p tcp -e 40 -c 2 -i 4 -a 2 -x {1.0 9.0 0 ------- null}
h -t 0.24136634648457 -s 6 -d 7 -p tcp -e 40 -c 2 -i 4 -a 2 -x {1.0 9.0 -1 ------- null}
r -t 0.24625 -s 3 -d 4 -p tcp -e 140 -c 1 -i 3 -a 1 -x {0.0 8.0 2 ------- null}
+ -t 0.24625 -s 4 -d 5 -p tcp -e 140 -c 1 -i 3 -a 1 -x {0.0 8.0 2 ------- null}
- -t 0.24625 -s 4 -d 5 -p tcp -e 140 -c 1 -i 3 -a 1 -x {0.0 8.0 2 ------- null}
h -t 0.24625 -s 4 -d 5 -p tcp -e 140 -c 1 -i 3 -a 1 -x {0.0 8.0 -1 ------- null}
r -t 0.25386634648457 -s 6 -d 7 -p tcp -e 40 -c 2 -i 4 -a 2 -x {1.0 9.0 0 ------- null}
+ -t 0.25386634648457 -s 7 -d 9 -p tcp -e 40 -c 2 -i 4 -a 2 -x {1.0 9.0 0 ------- null}
- -t 0.25386634648457 -s 7 -d 9 -p tcp -e 40 -c 2 -i 4 -a 2 -x {1.0 9.0 0 ------- null}
h -t 0.25386634648457 -s 7 -d 9 -p tcp -e 40 -c 2 -i 4 -a 2 -x {1.0 9.0 -1 ------- null}
r -t 0.25625 -s 4 -d 5 -p tcp -e 140 -c 1 -i 2 -a 1 -x {0.0 8.0 1 ------- null}
+ -t 0.25625 -s 5 -d 8 -p tcp -e 140 -c 1 -i 2 -a 1 -x {0.0 8.0 1 ------- null}
- -t 0.25625 -s 5 -d 8 -p tcp -e 140 -c 1 -i 2 -a 1 -x {0.0 8.0 1 ------- null}
h -t 0.25625 -s 5 -d 8 -p tcp -e 140 -c 1 -i 2 -a 1 -x {0.0 8.0 -1 ------- null}
r -t 0.265 -s 4 -d 5 -p tcp -e 140 -c 1 -i 3 -a 1 -x {0.0 8.0 2 ------- null}
+ -t 0.265 -s 5 -d 8 -p tcp -e 140 -c 1 -i 3 -a 1 -x {0.0 8.0 2 ------- null}
- -t 0.265 -s 5 -d 8 -p tcp -e 140 -c 1 -i 3 -a 1 -x {0.0 8.0 2 ------- null}
h -t 0.265 -s 5 -d 8 -p tcp -e 140 -c 1 -i 3 -a 1 -x {0.0 8.0 -1 ------- null}
r -t 0.26636634648457 -s 7 -d 9 -p tcp -e 40 -c 2 -i 4 -a 2 -x {1.0 9.0 0 ------- null}
+ -t 0.26636634648457 -s 9 -d 7 -p ack -e 40 -c 2 -i 5 -a 2 -x {9.0 1.0 0 ------- null}
- -t 0.26636634648457 -s 9 -d 7 -p ack -e 40 -c 2 -i 5 -a 2 -x {9.0 1.0 0 ------- null}
h -t 0.26636634648457 -s 9 -d 7 -p ack -e 40 -c 2 -i 5 -a 2 -x {9.0 1.0 -1 ------- null}
r -t 0.275 -s 5 -d 8 -p tcp -e 140 -c 1 -i 2 -a 1 -x {0.0 8.0 1 ------- null}
+ -t 0.275 -s 8 -d 5 -p ack -e 40 -c 1 -i 6 -a 1 -x {8.0 0.0 1 ------- null}
- -t 0.275 -s 8 -d 5 -p ack -e 40 -c 1 -i 6 -a 1 -x {8.0 0.0 1 ------- null}
h -t 0.275 -s 8 -d 5 -p ack -e 40 -c 1 -i 6 -a 1 -x {8.0 0.0 -1 ------- null}
r -t 0.27886634648457 -s 9 -d 7 -p ack -e 40 -c 2 -i 5 -a 2 -x {9.0 1.0 0 ------- null}
+ -t 0.27886634648457 -s 7 -d 6 -p ack -e 40 -c 2 -i 5 -a 2 -x {9.0 1.0 0 ------- null}
- -t 0.27886634648457 -s 7 -d 6 -p ack -e 40 -c 2 -i 5 -a 2 -x {9.0 1.0 0 ------- null}
h -t 0.27886634648457 -s 7 -d 6 -p ack -e 40 -c 2 -i 5 -a 2 -x {9.0 1.0 -1 ------- null}
r -t 0.28375 -s 5 -d 8 -p tcp -e 140 -c 1 -i 3 -a 1 -x {0.0 8.0 2 ------- null}
+ -t 0.28375 -s 8 -d 5 -p ack -e 40 -c 1 -i 7 -a 1 -x {8.0 0.0 2 ------- null}
- -t 0.28375 -s 8 -d 5 -p ack -e 40 -c 1 -i 7 -a 1 -x {8.0 0.0 2 ------- null}
h -t 0.28375 -s 8 -d 5 -p ack -e 40 -c 1 -i 7 -a 1 -x {8.0 0.0 -1 ------- null}
r -t 0.2875 -s 8 -d 5 -p ack -e 40 -c 1 -i 6 -a 1 -x {8.0 0.0 1 ------- null}
+ -t 0.2875 -s 5 -d 4 -p ack -e 40 -c 1 -i 6 -a 1 -x {8.0 0.0 1 ------- null}
- -t 0.2875 -s 5 -d 4 -p ack -e 40 -c 1 -i 6 -a 1 -x {8.0 0.0 1 ------- null}
h -t 0.2875 -s 5 -d 4 -p ack -e 40 -c 1 -i 6 -a 1 -x {8.0 0.0 -1 ------- null}
r -t 0.29136634648457 -s 7 -d 6 -p ack -e 40 -c 2 -i 5 -a 2 -x {9.0 1.0 0 ------- null}
+ -t 0.29136634648457 -s 6 -d 3 -p ack -e 40 -c 2 -i 5 -a 2 -x {9.0 1.0 0 ------- null}
- -t 0.29136634648457 -s 6 -d 3 -p ack -e 40 -c 2 -i 5 -a 2 -x {9.0 1.0 0 ------- null}
h -t 0.29136634648457 -s 6 -d 3 -p ack -e 40 -c 2 -i 5 -a 2 -x {9.0 1.0 -1 ------- null}
r -t 0.29625 -s 8 -d 5 -p ack -e 40 -c 1 -i 7 -a 1 -x {8.0 0.0 2 ------- null}
+ -t 0.29625 -s 5 -d 4 -p ack -e 40 -c 1 -i 7 -a 1 -x {8.0 0.0 2 ------- null}
- -t 0.29625 -s 5 -d 4 -p ack -e 40 -c 1 -i 7 -a 1 -x {8.0 0.0 2 ------- null}
h -t 0.29625 -s 5 -d 4 -p ack -e 40 -c 1 -i 7 -a 1 -x {8.0 0.0 -1 ------- null}
r -t 0.3 -s 5 -d 4 -p ack -e 40 -c 1 -i 6 -a 1 -x {8.0 0.0 1 ------- null}
+ -t 0.3 -s 4 -d 3 -p ack -e 40 -c 1 -i 6 -a 1 -x {8.0 0.0 1 ------- null}
- -t 0.3 -s 4 -d 3 -p ack -e 40 -c 1 -i 6 -a 1 -x {8.0 0.0 1 ------- null}
h -t 0.3 -s 4 -d 3 -p ack -e 40 -c 1 -i 6 -a 1 -x {8.0 0.0 -1 ------- null}
r -t 0.30386634648457 -s 6 -d 3 -p ack -e 40 -c 2 -i 5 -a 2 -x {9.0 1.0 0 ------- null}
+ -t 0.30386634648457 -s 3 -d 1 -p ack -e 40 -c 2 -i 5 -a 2 -x {9.0 1.0 0 ------- null}
- -t 0.30386634648457 -s 3 -d 1 -p ack -e 40 -c 2 -i 5 -a 2 -x {9.0 1.0 0 ------- null}
h -t 0.30386634648457 -s 3 -d 1 -p ack -e 40 -c 2 -i 5 -a 2 -x {9.0 1.0 -1 ------- null}
r -t 0.30875 -s 5 -d 4 -p ack -e 40 -c 1 -i 7 -a 1 -x {8.0 0.0 2 ------- null}
+ -t 0.30875 -s 4 -d 3 -p ack -e 40 -c 1 -i 7 -a 1 -x {8.0 0.0 2 ------- null}
- -t 0.30875 -s 4 -d 3 -p ack -e 40 -c 1 -i 7 -a 1 -x {8.0 0.0 2 ------- null}
h -t 0.30875 -s 4 -d 3 -p ack -e 40 -c 1 -i 7 -a 1 -x {8.0 0.0 -1 ------- null}
r -t 0.3125 -s 4 -d 3 -p ack -e 40 -c 1 -i 6 -a 1 -x {8.0 0.0 1 ------- null}
+ -t 0.3125 -s 3 -d 0 -p ack -e 40 -c 1 -i 6 -a 1 -x {8.0 0.0 1 ------- null}
- -t 0.3125 -s 3 -d 0 -p ack -e 40 -c 1 -i 6 -a 1 -x {8.0 0.0 1 ------- null}
h -t 0.3125 -s 3 -d 0 -p ack -e 40 -c 1 -i 6 -a 1 -x {8.0 0.0 -1 ------- null}
r -t 0.31636634648457 -s 3 -d 1 -p ack -e 40 -c 2 -i 5 -a 2 -x {9.0 1.0 0 ------- null}
+ -t 0.31636634648457 -s 1 -d 3 -p tcp -e 140 -c 2 -i 8 -a 2 -x {1.0 9.0 1 ------- null}
- -t 0.31636634648457 -s 1 -d 3 -p tcp -e 140 -c 2 -i 8 -a 2 -x {1.0 9.0 1 ------- null}
h -t 0.31636634648457 -s 1 -d 3 -p tcp -e 140 -c 2 -i 8 -a 2 -x {1.0 9.0 -1 ------- null}
+ -t 0.31636634648457 -s 1 -d 3 -p tcp -e 140 -c 2 -i 9 -a 2 -x {1.0 9.0 2 ------- null}
r -t 0.32125 -s 4 -d 3 -p ack -e 40 -c 1 -i 7 -a 1 -x {8.0 0.0 2 ------- null}
+ -t 0.32125 -s 3 -d 0 -p ack -e 40 -c 1 -i 7 -a 1 -x {8.0 0.0 2 ------- null}
- -t 0.32125 -s 3 -d 0 -p ack -e 40 -c 1 -i 7 -a 1 -x {8.0 0.0 2 ------- null}
h -t 0.32125 -s 3 -d 0 -p ack -e 40 -c 1 -i 7 -a 1 -x {8.0 0.0 -1 ------- null}
r -t 0.325 -s 3 -d 0 -p ack -e 40 -c 1 -i 6 -a 1 -x {8.0 0.0 1 ------- null}
+ -t 0.325 -s 0 -d 3 -p tcp -e 140 -c 1 -i 10 -a 1 -x {0.0 8.0 3 ------- null}
- -t 0.325 -s 0 -d 3 -p tcp -e 140 -c 1 -i 10 -a 1 -x {0.0 8.0 3 ------- null}
h -t 0.325 -s 0 -d 3 -p tcp -e 140 -c 1 -i 10 -a 1 -x {0.0 8.0 -1 ------- null}
+ -t 0.325 -s 0 -d 3 -p tcp -e 140 -c 1 -i 11 -a 1 -x {0.0 8.0 4 ------- null}
- -t 0.32511634648457 -s 1 -d 3 -p tcp -e 140 -c 2 -i 9 -a 2 -x {1.0 9.0 2 ------- null}
h -t 0.32511634648457 -s 1 -d 3 -p tcp -e 140 -c 2 -i 9 -a 2 -x {1.0 9.0 -1 ------- null}
- -t 0.33375 -s 0 -d 3 -p tcp -e 140 -c 1 -i 11 -a 1 -x {0.0 8.0 4 ------- null}
h -t 0.33375 -s 0 -d 3 -p tcp -e 140 -c 1 -i 11 -a 1 -x {0.0 8.0 -1 ------- null}
r -t 0.33375 -s 3 -d 0 -p ack -e 40 -c 1 -i 7 -a 1 -x {8.0 0.0 2 ------- null}
+ -t 0.33375 -s 0 -d 3 -p tcp -e 140 -c 1 -i 12 -a 1 -x {0.0 8.0 5 ------- null}
+ -t 0.33375 -s 0 -d 3 -p tcp -e 140 -c 1 -i 13 -a 1 -x {0.0 8.0 6 ------- null}
r -t 0.33511634648457 -s 1 -d 3 -p tcp -e 140 -c 2 -i 8 -a 2 -x {1.0 9.0 1 ------- null}
+ -t 0.33511634648457 -s 3 -d 6 -p tcp -e 140 -c 2 -i 8 -a 2 -x {1.0 9.0 1 ------- null}
- -t 0.33511634648457 -s 3 -d 6 -p tcp -e 140 -c 2 -i 8 -a 2 -x {1.0 9.0 1 ------- null}
h -t 0.33511634648457 -s 3 -d 6 -p tcp -e 140 -c 2 -i 8 -a 2 -x {1.0 9.0 -1 ------- null}
- -t 0.3425 -s 0 -d 3 -p tcp -e 140 -c 1 -i 12 -a 1 -x {0.0 8.0 5 ------- null}
h -t 0.3425 -s 0 -d 3 -p tcp -e 140 -c 1 -i 12 -a 1 -x {0.0 8.0 -1 ------- null}
r -t 0.34375 -s 0 -d 3 -p tcp -e 140 -c 1 -i 10 -a 1 -x {0.0 8.0 3 ------- null}
+ -t 0.34375 -s 3 -d 4 -p tcp -e 140 -c 1 -i 10 -a 1 -x {0.0 8.0 3 ------- null}
- -t 0.34375 -s 3 -d 4 -p tcp -e 140 -c 1 -i 10 -a 1 -x {0.0 8.0 3 ------- null}
h -t 0.34375 -s 3 -d 4 -p tcp -e 140 -c 1 -i 10 -a 1 -x {0.0 8.0 -1 ------- null}
r -t 0.34386634648457 -s 1 -d 3 -p tcp -e 140 -c 2 -i 9 -a 2 -x {1.0 9.0 2 ------- null}
+ -t 0.34386634648457 -s 3 -d 6 -p tcp -e 140 -c 2 -i 9 -a 2 -x {1.0 9.0 2 ------- null}
- -t 0.34386634648457 -s 3 -d 6 -p tcp -e 140 -c 2 -i 9 -a 2 -x {1.0 9.0 2 ------- null}
h -t 0.34386634648457 -s 3 -d 6 -p tcp -e 140 -c 2 -i 9 -a 2 -x {1.0 9.0 -1 ------- null}
- -t 0.35125 -s 0 -d 3 -p tcp -e 140 -c 1 -i 13 -a 1 -x {0.0 8.0 6 ------- null}
h -t 0.35125 -s 0 -d 3 -p tcp -e 140 -c 1 -i 13 -a 1 -x {0.0 8.0 -1 ------- null}
r -t 0.3525 -s 0 -d 3 -p tcp -e 140 -c 1 -i 11 -a 1 -x {0.0 8.0 4 ------- null}
+ -t 0.3525 -s 3 -d 4 -p tcp -e 140 -c 1 -i 11 -a 1 -x {0.0 8.0 4 ------- null}
- -t 0.3525 -s 3 -d 4 -p tcp -e 140 -c 1 -i 11 -a 1 -x {0.0 8.0 4 ------- null}
h -t 0.3525 -s 3 -d 4 -p tcp -e 140 -c 1 -i 11 -a 1 -x {0.0 8.0 -1 ------- null}
r -t 0.35386634648457 -s 3 -d 6 -p tcp -e 140 -c 2 -i 8 -a 2 -x {1.0 9.0 1 ------- null}
+ -t 0.35386634648457 -s 6 -d 7 -p tcp -e 140 -c 2 -i 8 -a 2 -x {1.0 9.0 1 ------- null}
- -t 0.35386634648457 -s 6 -d 7 -p tcp -e 140 -c 2 -i 8 -a 2 -x {1.0 9.0 1 ------- null}
h -t 0.35386634648457 -s 6 -d 7 -p tcp -e 140 -c 2 -i 8 -a 2 -x {1.0 9.0 -1 ------- null}
r -t 0.36125 -s 0 -d 3 -p tcp -e 140 -c 1 -i 12 -a 1 -x {0.0 8.0 5 ------- null}
+ -t 0.36125 -s 3 -d 4 -p tcp -e 140 -c 1 -i 12 -a 1 -x {0.0 8.0 5 ------- null}
- -t 0.36125 -s 3 -d 4 -p tcp -e 140 -c 1 -i 12 -a 1 -x {0.0 8.0 5 ------- null}
h -t 0.36125 -s 3 -d 4 -p tcp -e 140 -c 1 -i 12 -a 1 -x {0.0 8.0 -1 ------- null}
r -t 0.3625 -s 3 -d 4 -p tcp -e 140 -c 1 -i 10 -a 1 -x {0.0 8.0 3 ------- null}
+ -t 0.3625 -s 4 -d 5 -p tcp -e 140 -c 1 -i 10 -a 1 -x {0.0 8.0 3 ------- null}
- -t 0.3625 -s 4 -d 5 -p tcp -e 140 -c 1 -i 10 -a 1 -x {0.0 8.0 3 ------- null}
h -t 0.3625 -s 4 -d 5 -p tcp -e 140 -c 1 -i 10 -a 1 -x {0.0 8.0 -1 ------- null}
r -t 0.36261634648457 -s 3 -d 6 -p tcp -e 140 -c 2 -i 9 -a 2 -x {1.0 9.0 2 ------- null}
+ -t 0.36261634648457 -s 6 -d 7 -p tcp -e 140 -c 2 -i 9 -a 2 -x {1.0 9.0 2 ------- null}
- -t 0.36261634648457 -s 6 -d 7 -p tcp -e 140 -c 2 -i 9 -a 2 -x {1.0 9.0 2 ------- null}
h -t 0.36261634648457 -s 6 -d 7 -p tcp -e 140 -c 2 -i 9 -a 2 -x {1.0 9.0 -1 ------- null}
r -t 0.37 -s 0 -d 3 -p tcp -e 140 -c 1 -i 13 -a 1 -x {0.0 8.0 6 ------- null}
+ -t 0.37 -s 3 -d 4 -p tcp -e 140 -c 1 -i 13 -a 1 -x {0.0 8.0 6 ------- null}
- -t 0.37 -s 3 -d 4 -p tcp -e 140 -c 1 -i 13 -a 1 -x {0.0 8.0 6 ------- null}
h -t 0.37 -s 3 -d 4 -p tcp -e 140 -c 1 -i 13 -a 1 -x {0.0 8.0 -1 ------- null}
r -t 0.37125 -s 3 -d 4 -p tcp -e 140 -c 1 -i 11 -a 1 -x {0.0 8.0 4 ------- null}
+ -t 0.37125 -s 4 -d 5 -p tcp -e 140 -c 1 -i 11 -a 1 -x {0.0 8.0 4 ------- null}
- -t 0.37125 -s 4 -d 5 -p tcp -e 140 -c 1 -i 11 -a 1 -x {0.0 8.0 4 ------- null}
h -t 0.37125 -s 4 -d 5 -p tcp -e 140 -c 1 -i 11 -a 1 -x {0.0 8.0 -1 ------- null}
r -t 0.37261634648457 -s 6 -d 7 -p tcp -e 140 -c 2 -i 8 -a 2 -x {1.0 9.0 1 ------- null}
+ -t 0.37261634648457 -s 7 -d 9 -p tcp -e 140 -c 2 -i 8 -a 2 -x {1.0 9.0 1 ------- null}
- -t 0.37261634648457 -s 7 -d 9 -p tcp -e 140 -c 2 -i 8 -a 2 -x {1.0 9.0 1 ------- null}
h -t 0.37261634648457 -s 7 -d 9 -p tcp -e 140 -c 2 -i 8 -a 2 -x {1.0 9.0 -1 ------- null}
r -t 0.38 -s 3 -d 4 -p tcp -e 140 -c 1 -i 12 -a 1 -x {0.0 8.0 5 ------- null}
+ -t 0.38 -s 4 -d 5 -p tcp -e 140 -c 1 -i 12 -a 1 -x {0.0 8.0 5 ------- null}
- -t 0.38 -s 4 -d 5 -p tcp -e 140 -c 1 -i 12 -a 1 -x {0.0 8.0 5 ------- null}
h -t 0.38 -s 4 -d 5 -p tcp -e 140 -c 1 -i 12 -a 1 -x {0.0 8.0 -1 ------- null}
r -t 0.38125 -s 4 -d 5 -p tcp -e 140 -c 1 -i 10 -a 1 -x {0.0 8.0 3 ------- null}
+ -t 0.38125 -s 5 -d 8 -p tcp -e 140 -c 1 -i 10 -a 1 -x {0.0 8.0 3 ------- null}
- -t 0.38125 -s 5 -d 8 -p tcp -e 140 -c 1 -i 10 -a 1 -x {0.0 8.0 3 ------- null}
h -t 0.38125 -s 5 -d 8 -p tcp -e 140 -c 1 -i 10 -a 1 -x {0.0 8.0 -1 ------- null}
r -t 0.38136634648457 -s 6 -d 7 -p tcp -e 140 -c 2 -i 9 -a 2 -x {1.0 9.0 2 ------- null}
+ -t 0.38136634648457 -s 7 -d 9 -p tcp -e 140 -c 2 -i 9 -a 2 -x {1.0 9.0 2 ------- null}
- -t 0.38136634648457 -s 7 -d 9 -p tcp -e 140 -c 2 -i 9 -a 2 -x {1.0 9.0 2 ------- null}
h -t 0.38136634648457 -s 7 -d 9 -p tcp -e 140 -c 2 -i 9 -a 2 -x {1.0 9.0 -1 ------- null}
r -t 0.38875 -s 3 -d 4 -p tcp -e 140 -c 1 -i 13 -a 1 -x {0.0 8.0 6 ------- null}
+ -t 0.38875 -s 4 -d 5 -p tcp -e 140 -c 1 -i 13 -a 1 -x {0.0 8.0 6 ------- null}
- -t 0.38875 -s 4 -d 5 -p tcp -e 140 -c 1 -i 13 -a 1 -x {0.0 8.0 6 ------- null}
h -t 0.38875 -s 4 -d 5 -p tcp -e 140 -c 1 -i 13 -a 1 -x {0.0 8.0 -1 ------- null}
r -t 0.39 -s 4 -d 5 -p tcp -e 140 -c 1 -i 11 -a 1 -x {0.0 8.0 4 ------- null}
+ -t 0.39 -s 5 -d 8 -p tcp -e 140 -c 1 -i 11 -a 1 -x {0.0 8.0 4 ------- null}
- -t 0.39 -s 5 -d 8 -p tcp -e 140 -c 1 -i 11 -a 1 -x {0.0 8.0 4 ------- null}
h -t 0.39 -s 5 -d 8 -p tcp -e 140 -c 1 -i 11 -a 1 -x {0.0 8.0 -1 ------- null}
r -t 0.39136634648457 -s 7 -d 9 -p tcp -e 140 -c 2 -i 8 -a 2 -x {1.0 9.0 1 ------- null}
+ -t 0.39136634648457 -s 9 -d 7 -p ack -e 40 -c 2 -i 14 -a 2 -x {9.0 1.0 1 ------- null}
- -t 0.39136634648457 -s 9 -d 7 -p ack -e 40 -c 2 -i 14 -a 2 -x {9.0 1.0 1 ------- null}
h -t 0.39136634648457 -s 9 -d 7 -p ack -e 40 -c 2 -i 14 -a 2 -x {9.0 1.0 -1 ------- null}
r -t 0.39875 -s 4 -d 5 -p tcp -e 140 -c 1 -i 12 -a 1 -x {0.0 8.0 5 ------- null}
+ -t 0.39875 -s 5 -d 8 -p tcp -e 140 -c 1 -i 12 -a 1 -x {0.0 8.0 5 ------- null}
- -t 0.39875 -s 5 -d 8 -p tcp -e 140 -c 1 -i 12 -a 1 -x {0.0 8.0 5 ------- null}
h -t 0.39875 -s 5 -d 8 -p tcp -e 140 -c 1 -i 12 -a 1 -x {0.0 8.0 -1 ------- null}
r -t 0.4 -s 5 -d 8 -p tcp -e 140 -c 1 -i 10 -a 1 -x {0.0 8.0 3 ------- null}
+ -t 0.4 -s 8 -d 5 -p ack -e 40 -c 1 -i 15 -a 1 -x {8.0 0.0 3 ------- null}
- -t 0.4 -s 8 -d 5 -p ack -e 40 -c 1 -i 15 -a 1 -x {8.0 0.0 3 ------- null}
h -t 0.4 -s 8 -d 5 -p ack -e 40 -c 1 -i 15 -a 1 -x {8.0 0.0 -1 ------- null}
r -t 0.40011634648457 -s 7 -d 9 -p tcp -e 140 -c 2 -i 9 -a 2 -x {1.0 9.0 2 ------- null}
+ -t 0.40011634648457 -s 9 -d 7 -p ack -e 40 -c 2 -i 16 -a 2 -x {9.0 1.0 2 ------- null}
- -t 0.40011634648457 -s 9 -d 7 -p ack -e 40 -c 2 -i 16 -a 2 -x {9.0 1.0 2 ------- null}
h -t 0.40011634648457 -s 9 -d 7 -p ack -e 40 -c 2 -i 16 -a 2 -x {9.0 1.0 -1 ------- null}
r -t 0.40386634648457 -s 9 -d 7 -p ack -e 40 -c 2 -i 14 -a 2 -x {9.0 1.0 1 ------- null}
+ -t 0.40386634648457 -s 7 -d 6 -p ack -e 40 -c 2 -i 14 -a 2 -x {9.0 1.0 1 ------- null}
- -t 0.40386634648457 -s 7 -d 6 -p ack -e 40 -c 2 -i 14 -a 2 -x {9.0 1.0 1 ------- null}
h -t 0.40386634648457 -s 7 -d 6 -p ack -e 40 -c 2 -i 14 -a 2 -x {9.0 1.0 -1 ------- null}
r -t 0.4075 -s 4 -d 5 -p tcp -e 140 -c 1 -i 13 -a 1 -x {0.0 8.0 6 ------- null}
+ -t 0.4075 -s 5 -d 8 -p tcp -e 140 -c 1 -i 13 -a 1 -x {0.0 8.0 6 ------- null}
- -t 0.4075 -s 5 -d 8 -p tcp -e 140 -c 1 -i 13 -a 1 -x {0.0 8.0 6 ------- null}
h -t 0.4075 -s 5 -d 8 -p tcp -e 140 -c 1 -i 13 -a 1 -x {0.0 8.0 -1 ------- null}
r -t 0.40875 -s 5 -d 8 -p tcp -e 140 -c 1 -i 11 -a 1 -x {0.0 8.0 4 ------- null}
+ -t 0.40875 -s 8 -d 5 -p ack -e 40 -c 1 -i 17 -a 1 -x {8.0 0.0 4 ------- null}
- -t 0.40875 -s 8 -d 5 -p ack -e 40 -c 1 -i 17 -a 1 -x {8.0 0.0 4 ------- null}
h -t 0.40875 -s 8 -d 5 -p ack -e 40 -c 1 -i 17 -a 1 -x {8.0 0.0 -1 ------- null}
r -t 0.4125 -s 8 -d 5 -p ack -e 40 -c 1 -i 15 -a 1 -x {8.0 0.0 3 ------- null}
+ -t 0.4125 -s 5 -d 4 -p ack -e 40 -c 1 -i 15 -a 1 -x {8.0 0.0 3 ------- null}
- -t 0.4125 -s 5 -d 4 -p ack -e 40 -c 1 -i 15 -a 1 -x {8.0 0.0 3 ------- null}
h -t 0.4125 -s 5 -d 4 -p ack -e 40 -c 1 -i 15 -a 1 -x {8.0 0.0 -1 ------- null}
r -t 0.41261634648457 -s 9 -d 7 -p ack -e 40 -c 2 -i 16 -a 2 -x {9.0 1.0 2 ------- null}
+ -t 0.41261634648457 -s 7 -d 6 -p ack -e 40 -c 2 -i 16 -a 2 -x {9.0 1.0 2 ------- null}
- -t 0.41261634648457 -s 7 -d 6 -p ack -e 40 -c 2 -i 16 -a 2 -x {9.0 1.0 2 ------- null}
h -t 0.41261634648457 -s 7 -d 6 -p ack -e 40 -c 2 -i 16 -a 2 -x {9.0 1.0 -1 ------- null}
r -t 0.41636634648457 -s 7 -d 6 -p ack -e 40 -c 2 -i 14 -a 2 -x {9.0 1.0 1 ------- null}
+ -t 0.41636634648457 -s 6 -d 3 -p ack -e 40 -c 2 -i 14 -a 2 -x {9.0 1.0 1 ------- null}
- -t 0.41636634648457 -s 6 -d 3 -p ack -e 40 -c 2 -i 14 -a 2 -x {9.0 1.0 1 ------- null}
h -t 0.41636634648457 -s 6 -d 3 -p ack -e 40 -c 2 -i 14 -a 2 -x {9.0 1.0 -1 ------- null}
r -t 0.4175 -s 5 -d 8 -p tcp -e 140 -c 1 -i 12 -a 1 -x {0.0 8.0 5 ------- null}
+ -t 0.4175 -s 8 -d 5 -p ack -e 40 -c 1 -i 18 -a 1 -x {8.0 0.0 5 ------- null}
- -t 0.4175 -s 8 -d 5 -p ack -e 40 -c 1 -i 18 -a 1 -x {8.0 0.0 5 ------- null}
h -t 0.4175 -s 8 -d 5 -p ack -e 40 -c 1 -i 18 -a 1 -x {8.0 0.0 -1 ------- null}
r -t 0.42125 -s 8 -d 5 -p ack -e 40 -c 1 -i 17 -a 1 -x {8.0 0.0 4 ------- null}
+ -t 0.42125 -s 5 -d 4 -p ack -e 40 -c 1 -i 17 -a 1 -x {8.0 0.0 4 ------- null}
- -t 0.42125 -s 5 -d 4 -p ack -e 40 -c 1 -i 17 -a 1 -x {8.0 0.0 4 ------- null}
h -t 0.42125 -s 5 -d 4 -p ack -e 40 -c 1 -i 17 -a 1 -x {8.0 0.0 -1 ------- null}
r -t 0.425 -s 5 -d 4 -p ack -e 40 -c 1 -i 15 -a 1 -x {8.0 0.0 3 ------- null}
+ -t 0.425 -s 4 -d 3 -p ack -e 40 -c 1 -i 15 -a 1 -x {8.0 0.0 3 ------- null}
- -t 0.425 -s 4 -d 3 -p ack -e 40 -c 1 -i 15 -a 1 -x {8.0 0.0 3 ------- null}
h -t 0.425 -s 4 -d 3 -p ack -e 40 -c 1 -i 15 -a 1 -x {8.0 0.0 -1 ------- null}
r -t 0.42511634648457 -s 7 -d 6 -p ack -e 40 -c 2 -i 16 -a 2 -x {9.0 1.0 2 ------- null}
+ -t 0.42511634648457 -s 6 -d 3 -p ack -e 40 -c 2 -i 16 -a 2 -x {9.0 1.0 2 ------- null}
- -t 0.42511634648457 -s 6 -d 3 -p ack -e 40 -c 2 -i 16 -a 2 -x {9.0 1.0 2 ------- null}
h -t 0.42511634648457 -s 6 -d 3 -p ack -e 40 -c 2 -i 16 -a 2 -x {9.0 1.0 -1 ------- null}
r -t 0.42625 -s 5 -d 8 -p tcp -e 140 -c 1 -i 13 -a 1 -x {0.0 8.0 6 ------- null}
+ -t 0.42625 -s 8 -d 5 -p ack -e 40 -c 1 -i 19 -a 1 -x {8.0 0.0 6 ------- null}
- -t 0.42625 -s 8 -d 5 -p ack -e 40 -c 1 -i 19 -a 1 -x {8.0 0.0 6 ------- null}
h -t 0.42625 -s 8 -d 5 -p ack -e 40 -c 1 -i 19 -a 1 -x {8.0 0.0 -1 ------- null}
r -t 0.42886634648457 -s 6 -d 3 -p ack -e 40 -c 2 -i 14 -a 2 -x {9.0 1.0 1 ------- null}
+ -t 0.42886634648457 -s 3 -d 1 -p ack -e 40 -c 2 -i 14 -a 2 -x {9.0 1.0 1 ------- null}
- -t 0.42886634648457 -s 3 -d 1 -p ack -e 40 -c 2 -i 14 -a 2 -x {9.0 1.0 1 ------- null}
h -t 0.42886634648457 -s 3 -d 1 -p ack -e 40 -c 2 -i 14 -a 2 -x {9.0 1.0 -1 ------- null}
r -t 0.43 -s 8 -d 5 -p ack -e 40 -c 1 -i 18 -a 1 -x {8.0 0.0 5 ------- null}
+ -t 0.43 -s 5 -d 4 -p ack -e 40 -c 1 -i 18 -a 1 -x {8.0 0.0 5 ------- null}
- -t 0.43 -s 5 -d 4 -p ack -e 40 -c 1 -i 18 -a 1 -x {8.0 0.0 5 ------- null}
h -t 0.43 -s 5 -d 4 -p ack -e 40 -c 1 -i 18 -a 1 -x {8.0 0.0 -1 ------- null}
r -t 0.43375 -s 5 -d 4 -p ack -e 40 -c 1 -i 17 -a 1 -x {8.0 0.0 4 ------- null}
+ -t 0.43375 -s 4 -d 3 -p ack -e 40 -c 1 -i 17 -a 1 -x {8.0 0.0 4 ------- null}
- -t 0.43375 -s 4 -d 3 -p ack -e 40 -c 1 -i 17 -a 1 -x {8.0 0.0 4 ------- null}
h -t 0.43375 -s 4 -d 3 -p ack -e 40 -c 1 -i 17 -a 1 -x {8.0 0.0 -1 ------- null}
r -t 0.4375 -s 4 -d 3 -p ack -e 40 -c 1 -i 15 -a 1 -x {8.0 0.0 3 ------- null}
+ -t 0.4375 -s 3 -d 0 -p ack -e 40 -c 1 -i 15 -a 1 -x {8.0 0.0 3 ------- null}
- -t 0.4375 -s 3 -d 0 -p ack -e 40 -c 1 -i 15 -a 1 -x {8.0 0.0 3 ------- null}
h -t 0.4375 -s 3 -d 0 -p ack -e 40 -c 1 -i 15 -a 1 -x {8.0 0.0 -1 ------- null}
r -t 0.43761634648457 -s 6 -d 3 -p ack -e 40 -c 2 -i 16 -a 2 -x {9.0 1.0 2 ------- null}
+ -t 0.43761634648457 -s 3 -d 1 -p ack -e 40 -c 2 -i 16 -a 2 -x {9.0 1.0 2 ------- null}
- -t 0.43761634648457 -s 3 -d 1 -p ack -e 40 -c 2 -i 16 -a 2 -x {9.0 1.0 2 ------- null}
h -t 0.43761634648457 -s 3 -d 1 -p ack -e 40 -c 2 -i 16 -a 2 -x {9.0 1.0 -1 ------- null}
r -t 0.43875 -s 8 -d 5 -p ack -e 40 -c 1 -i 19 -a 1 -x {8.0 0.0 6 ------- null}
+ -t 0.43875 -s 5 -d 4 -p ack -e 40 -c 1 -i 19 -a 1 -x {8.0 0.0 6 ------- null}
- -t 0.43875 -s 5 -d 4 -p ack -e 40 -c 1 -i 19 -a 1 -x {8.0 0.0 6 ------- null}
h -t 0.43875 -s 5 -d 4 -p ack -e 40 -c 1 -i 19 -a 1 -x {8.0 0.0 -1 ------- null}
r -t 0.44136634648457 -s 3 -d 1 -p ack -e 40 -c 2 -i 14 -a 2 -x {9.0 1.0 1 ------- null}
+ -t 0.44136634648457 -s 1 -d 3 -p tcp -e 140 -c 2 -i 20 -a 2 -x {1.0 9.0 3 ------- null}
- -t 0.44136634648457 -s 1 -d 3 -p tcp -e 140 -c 2 -i 20 -a 2 -x {1.0 9.0 3 ------- null}
h -t 0.44136634648457 -s 1 -d 3 -p tcp -e 140 -c 2 -i 20 -a 2 -x {1.0 9.0 -1 ------- null}
+ -t 0.44136634648457 -s 1 -d 3 -p tcp -e 140 -c 2 -i 21 -a 2 -x {1.0 9.0 4 ------- null}
r -t 0.4425 -s 5 -d 4 -p ack -e 40 -c 1 -i 18 -a 1 -x {8.0 0.0 5 ------- null}
+ -t 0.4425 -s 4 -d 3 -p ack -e 40 -c 1 -i 18 -a 1 -x {8.0 0.0 5 ------- null}
- -t 0.4425 -s 4 -d 3 -p ack -e 40 -c 1 -i 18 -a 1 -x {8.0 0.0 5 ------- null}
h -t 0.4425 -s 4 -d 3 -p ack -e 40 -c 1 -i 18 -a 1 -x {8.0 0.0 -1 ------- null}
r -t 0.44625 -s 4 -d 3 -p ack -e 40 -c 1 -i 17 -a 1 -x {8.0 0.0 4 ------- null}
+ -t 0.44625 -s 3 -d 0 -p ack -e 40 -c 1 -i 17 -a 1 -x {8.0 0.0 4 ------- null}
- -t 0.44625 -s 3 -d 0 -p ack -e 40 -c 1 -i 17 -a 1 -x {8.0 0.0 4 ------- null}
h -t 0.44625 -s 3 -d 0 -p ack -e 40 -c 1 -i 17 -a 1 -x {8.0 0.0 -1 ------- null}
r -t 0.45 -s 3 -d 0 -p ack -e 40 -c 1 -i 15 -a 1 -x {8.0 0.0 3 ------- null}
+ -t 0.45 -s 0 -d 3 -p tcp -e 140 -c 1 -i 22 -a 1 -x {0.0 8.0 7 ------- null}
- -t 0.45 -s 0 -d 3 -p tcp -e 140 -c 1 -i 22 -a 1 -x {0.0 8.0 7 ------- null}
h -t 0.45 -s 0 -d 3 -p tcp -e 140 -c 1 -i 22 -a 1 -x {0.0 8.0 -1 ------- null}
+ -t 0.45 -s 0 -d 3 -p tcp -e 140 -c 1 -i 23 -a 1 -x {0.0 8.0 8 ------- null}
r -t 0.45011634648457 -s 3 -d 1 -p ack -e 40 -c 2 -i 16 -a 2 -x {9.0 1.0 2 ------- null}
+ -t 0.45011634648457 -s 1 -d 3 -p tcp -e 140 -c 2 -i 24 -a 2 -x {1.0 9.0 5 ------- null}
+ -t 0.45011634648457 -s 1 -d 3 -p tcp -e 140 -c 2 -i 25 -a 2 -x {1.0 9.0 6 ------- null}
- -t 0.45011634648457 -s 1 -d 3 -p tcp -e 140 -c 2 -i 21 -a 2 -x {1.0 9.0 4 ------- null}
h -t 0.45011634648457 -s 1 -d 3 -p tcp -e 140 -c 2 -i 21 -a 2 -x {1.0 9.0 -1 ------- null}
r -t 0.45125 -s 5 -d 4 -p ack -e 40 -c 1 -i 19 -a 1 -x {8.0 0.0 6 ------- null}
+ -t 0.45125 -s 4 -d 3 -p ack -e 40 -c 1 -i 19 -a 1 -x {8.0 0.0 6 ------- null}
- -t 0.45125 -s 4 -d 3 -p ack -e 40 -c 1 -i 19 -a 1 -x {8.0 0.0 6 ------- null}
h -t 0.45125 -s 4 -d 3 -p ack -e 40 -c 1 -i 19 -a 1 -x {8.0 0.0 -1 ------- null}
r -t 0.455 -s 4 -d 3 -p ack -e 40 -c 1 -i 18 -a 1 -x {8.0 0.0 5 ------- null}
+ -t 0.455 -s 3 -d 0 -p ack -e 40 -c 1 -i 18 -a 1 -x {8.0 0.0 5 ------- null}
- -t 0.455 -s 3 -d 0 -p ack -e 40 -c 1 -i 18 -a 1 -x {8.0 0.0 5 ------- null}
h -t 0.455 -s 3 -d 0 -p ack -e 40 -c 1 -i 18 -a 1 -x {8.0 0.0 -1 ------- null}
r -t 0.45875 -s 3 -d 0 -p ack -e 40 -c 1 -i 17 -a 1 -x {8.0 0.0 4 ------- null}
+ -t 0.45875 -s 0 -d 3 -p tcp -e 140 -c 1 -i 26 -a 1 -x {0.0 8.0 9 ------- null}
+ -t 0.45875 -s 0 -d 3 -p tcp -e 140 -c 1 -i 27 -a 1 -x {0.0 8.0 10 ------- null}
- -t 0.45875 -s 0 -d 3 -p tcp -e 140 -c 1 -i 23 -a 1 -x {0.0 8.0 8 ------- null}
h -t 0.45875 -s 0 -d 3 -p tcp -e 140 -c 1 -i 23 -a 1 -x {0.0 8.0 -1 ------- null}
- -t 0.45886634648457 -s 1 -d 3 -p tcp -e 140 -c 2 -i 24 -a 2 -x {1.0 9.0 5 ------- null}
h -t 0.45886634648457 -s 1 -d 3 -p tcp -e 140 -c 2 -i 24 -a 2 -x {1.0 9.0 -1 ------- null}
r -t 0.46011634648457 -s 1 -d 3 -p tcp -e 140 -c 2 -i 20 -a 2 -x {1.0 9.0 3 ------- null}
+ -t 0.46011634648457 -s 3 -d 6 -p tcp -e 140 -c 2 -i 20 -a 2 -x {1.0 9.0 3 ------- null}
- -t 0.46011634648457 -s 3 -d 6 -p tcp -e 140 -c 2 -i 20 -a 2 -x {1.0 9.0 3 ------- null}
h -t 0.46011634648457 -s 3 -d 6 -p tcp -e 140 -c 2 -i 20 -a 2 -x {1.0 9.0 -1 ------- null}
r -t 0.46375 -s 4 -d 3 -p ack -e 40 -c 1 -i 19 -a 1 -x {8.0 0.0 6 ------- null}
+ -t 0.46375 -s 3 -d 0 -p ack -e 40 -c 1 -i 19 -a 1 -x {8.0 0.0 6 ------- null}
- -t 0.46375 -s 3 -d 0 -p ack -e 40 -c 1 -i 19 -a 1 -x {8.0 0.0 6 ------- null}
h -t 0.46375 -s 3 -d 0 -p ack -e 40 -c 1 -i 19 -a 1 -x {8.0 0.0 -1 ------- null}
r -t 0.4675 -s 3 -d 0 -p ack -e 40 -c 1 -i 18 -a 1 -x {8.0 0.0 5 ------- null}
+ -t 0.4675 -s 0 -d 3 -p tcp -e 140 -c 1 -i 28 -a 1 -x {0.0 8.0 11 ------- null}
+ -t 0.4675 -s 0 -d 3 -p tcp -e 140 -c 1 -i 29 -a 1 -x {0.0 8.0 12 ------- null}
- -t 0.4675 -s 0 -d 3 -p tcp -e 140 -c 1 -i 26 -a 1 -x {0.0 8.0 9 ------- null}
h -t 0.4675 -s 0 -d 3 -p tcp -e 140 -c 1 -i 26 -a 1 -x {0.0 8.0 -1 ------- null}
- -t 0.46761634648457 -s 1 -d 3 -p tcp -e 140 -c 2 -i 25 -a 2 -x {1.0 9.0 6 ------- null}
h -t 0.46761634648457 -s 1 -d 3 -p tcp -e 140 -c 2 -i 25 -a 2 -x {1.0 9.0 -1 ------- null}