V -t * -v 1.0a5 -a 0
A -t * -n 1 -p 0 -o 0x7fffffff -c 30 -a 1
A -t * -h 1 -m 1073741823 -s 0
c -t * -i 1 -n Blue
c -t * -i 2 -n Red
n -t * -a 0 -s 0 -S UP -v circle -c black -i black
n -t * -a 1 -s 1 -S UP -v circle -c black -i black
n -t * -a 2 -s 2 -S UP -v circle -c black -i black
n -t * -a 3 -s 3 -S UP -v circle -c black -i black
l -t * -s 0 -d 2 -S UP -r 128000 -D 0.10000000000000001 -c black -o right-down
l -t * -s 1 -d 2 -S UP -r 128000 -D 0.10000000000000001 -c black -o right-up
l -t * -s 2 -d 3 -S UP -r 128000 -D 0.10000000000000001 -c black -o right
q -t * -s 3 -d 2 -a 0.5
q -t * -s 2 -d 3 -a 0.5
+ -t 0.1 -s 0 -d 2 -p tcp -e 40 -c 1 -i 0 -a 1 -x {0.0 3.0 0 ------- null}
- -t 0.1 -s 0 -d 2 -p tcp -e 40 -c 1 -i 0 -a 1 -x {0.0 3.0 0 ------- null}
h -t 0.1 -s 0 -d 2 -p tcp -e 40 -c 1 -i 0 -a 1 -x {0.0 3.0 -1 ------- null}
r -t 0.2025 -s 0 -d 2 -p tcp -e 40 -c 1 -i 0 -a 1 -x {0.0 3.0 0 ------- null}
+ -t 0.2025 -s 2 -d 3 -p tcp -e 40 -c 1 -i 0 -a 1 -x {0.0 3.0 0 ------- null}
- -t 0.2025 -s 2 -d 3 -p tcp -e 40 -c 1 -i 0 -a 1 -x {0.0 3.0 0 ------- null}
h -t 0.2025 -s 2 -d 3 -p tcp -e 40 -c 1 -i 0 -a 1 -x {0.0 3.0 -1 ------- null}
r -t 0.305 -s 2 -d 3 -p tcp -e 40 -c 1 -i 0 -a 1 -x {0.0 3.0 0 ------- null}
+ -t 0.305 -s 3 -d 2 -p ack -e 40 -c 1 -i 1 -a 1 -x {3.0 0.0 0 ------- null}
- -t 0.305 -s 3 -d 2 -p ack -e 40 -c 1 -i 1 -a 1 -x {3.0 0.0 0 ------- null}
h -t 0.305 -s 3 -d 2 -p ack -e 40 -c 1 -i 1 -a 1 -x {3.0 0.0 -1 ------- null}
r -t 0.4075 -s 3 -d 2 -p ack -e 40 -c 1 -i 1 -a 1 -x {3.0 0.0 0 ------- null}
+ -t 0.4075 -s 2 -d 0 -p ack -e 40 -c 1 -i 1 -a 1 -x {3.0 0.0 0 ------- null}
- -t 0.4075 -s 2 -d 0 -p ack -e 40 -c 1 -i 1 -a 1 -x {3.0 0.0 0 ------- null}
h -t 0.4075 -s 2 -d 0 -p ack -e 40 -c 1 -i 1 -a 1 -x {3.0 0.0 -1 ------- null}
r -t 0.51 -s 2 -d 0 -p ack -e 40 -c 1 -i 1 -a 1 -x {3.0 0.0 0 ------- null}
+ -t 0.51 -s 0 -d 2 -p tcp -e 140 -c 1 -i 2 -a 1 -x {0.0 3.0 1 ------- null}
- -t 0.51 -s 0 -d 2 -p tcp -e 140 -c 1 -i 2 -a 1 -x {0.0 3.0 1 ------- null}
h -t 0.51 -s 0 -d 2 -p tcp -e 140 -c 1 -i 2 -a 1 -x {0.0 3.0 -1 ------- null}
+ -t 0.51 -s 0 -d 2 -p tcp -e 140 -c 1 -i 3 -a 1 -x {0.0 3.0 2 ------- null}
- -t 0.51875 -s 0 -d 2 -p tcp -e 140 -c 1 -i 3 -a 1 -x {0.0 3.0 2 ------- null}
h -t 0.51875 -s 0 -d 2 -p tcp -e 140 -c 1 -i 3 -a 1 -x {0.0 3.0 -1 ------- null}
+ -t 0.524549519726855 -s 1 -d 2 -p tcp -e 40 -c 2 -i 4 -a 2 -x {1.0 3.1 0 ------- null}
- -t 0.524549519726855 -s 1 -d 2 -p tcp -e 40 -c 2 -i 4 -a 2 -x {1.0 3.1 0 ------- null}
h -t 0.524549519726855 -s 1 -d 2 -p tcp -e 40 -c 2 -i 4 -a 2 -x {1.0 3.1 -1 ------- null}
r -t 0.61875 -s 0 -d 2 -p tcp -e 140 -c 1 -i 2 -a 1 -x {0.0 3.0 1 ------- null}
+ -t 0.61875 -s 2 -d 3 -p tcp -e 140 -c 1 -i 2 -a 1 -x {0.0 3.0 1 ------- null}
- -t 0.61875 -s 2 -d 3 -p tcp -e 140 -c 1 -i 2 -a 1 -x {0.0 3.0 1 ------- null}
h -t 0.61875 -s 2 -d 3 -p tcp -e 140 -c 1 -i 2 -a 1 -x {0.0 3.0 -1 ------- null}
r -t 0.627049519726855 -s 1 -d 2 -p tcp -e 40 -c 2 -i 4 -a 2 -x {1.0 3.1 0 ------- null}
+ -t 0.627049519726855 -s 2 -d 3 -p tcp -e 40 -c 2 -i 4 -a 2 -x {1.0 3.1 0 ------- null}
r -t 0.6275 -s 0 -d 2 -p tcp -e 140 -c 1 -i 3 -a 1 -x {0.0 3.0 2 ------- null}
+ -t 0.6275 -s 2 -d 3 -p tcp -e 140 -c 1 -i 3 -a 1 -x {0.0 3.0 2 ------- null}
- -t 0.6275 -s 2 -d 3 -p tcp -e 40 -c 2 -i 4 -a 2 -x {1.0 3.1 0 ------- null}
h -t 0.6275 -s 2 -d 3 -p tcp -e 40 -c 2 -i 4 -a 2 -x {1.0 3.1 -1 ------- null}
- -t 0.63 -s 2 -d 3 -p tcp -e 140 -c 1 -i 3 -a 1 -x {0.0 3.0 2 ------- null}
h -t 0.63 -s 2 -d 3 -p tcp -e 140 -c 1 -i 3 -a 1 -x {0.0 3.0 -1 ------- null}
r -t 0.7275 -s 2 -d 3 -p tcp -e 140 -c 1 -i 2 -a 1 -x {0.0 3.0 1 ------- null}
+ -t 0.7275 -s 3 -d 2 -p ack -e 40 -c 1 -i 5 -a 1 -x {3.0 0.0 1 ------- null}
- -t 0.7275 -s 3 -d 2 -p ack -e 40 -c 1 -i 5 -a 1 -x {3.0 0.0 1 ------- null}
h -t 0.7275 -s 3 -d 2 -p ack -e 40 -c 1 -i 5 -a 1 -x {3.0 0.0 -1 ------- null}
r -t 0.73 -s 2 -d 3 -p tcp -e 40 -c 2 -i 4 -a 2 -x {1.0 3.1 0 ------- null}
+ -t 0.73 -s 3 -d 2 -p ack -e 40 -c 2 -i 6 -a 2 -x {3.1 1.0 0 ------- null}
- -t 0.73 -s 3 -d 2 -p ack -e 40 -c 2 -i 6 -a 2 -x {3.1 1.0 0 ------- null}
h -t 0.73 -s 3 -d 2 -p ack -e 40 -c 2 -i 6 -a 2 -x {3.1 1.0 -1 ------- null}
r -t 0.73875 -s 2 -d 3 -p tcp -e 140 -c 1 -i 3 -a 1 -x {0.0 3.0 2 ------- null}
+ -t 0.73875 -s 3 -d 2 -p ack -e 40 -c 1 -i 7 -a 1 -x {3.0 0.0 2 ------- null}
- -t 0.73875 -s 3 -d 2 -p ack -e 40 -c 1 -i 7 -a 1 -x {3.0 0.0 2 ------- null}
h -t 0.73875 -s 3 -d 2 -p ack -e 40 -c 1 -i 7 -a 1 -x {3.0 0.0 -1 ------- null}
r -t 0.83 -s 3 -d 2 -p ack -e 40 -c 1 -i 5 -a 1 -x {3.0 0.0 1 ------- null}
+ -t 0.83 -s 2 -d 0 -p ack -e 40 -c 1 -i 5 -a 1 -x {3.0 0.0 1 ------- null}
- -t 0.83 -s 2 -d 0 -p ack -e 40 -c 1 -i 5 -a 1 -x {3.0 0.0 1 ------- null}
h -t 0.83 -s 2 -d 0 -p ack -e 40 -c 1 -i 5 -a 1 -x {3.0 0.0 -1 ------- null}
r -t 0.8325 -s 3 -d 2 -p ack -e 40 -c 2 -i 6 -a 2 -x {3.1 1.0 0 ------- null}
+ -t 0.8325 -s 2 -d 1 -p ack -e 40 -c 2 -i 6 -a 2 -x {3.1 1.0 0 ------- null}
- -t 0.8325 -s 2 -d 1 -p ack -e 40 -c 2 -i 6 -a 2 -x {3.1 1.0 0 ------- null}
h -t 0.8325 -s 2 -d 1 -p ack -e 40 -c 2 -i 6 -a 2 -x {3.1 1.0 -1 ------- null}
r -t 0.84125 -s 3 -d 2 -p ack -e 40 -c 1 -i 7 -a 1 -x {3.0 0.0 2 ------- null}
+ -t 0.84125 -s 2 -d 0 -p ack -e 40 -c 1 -i 7 -a 1 -x {3.0 0.0 2 ------- null}
- -t 0.84125 -s 2 -d 0 -p ack -e 40 -c 1 -i 7 -a 1 -x {3.0 0.0 2 ------- null}
h -t 0.84125 -s 2 -d 0 -p ack -e 40 -c 1 -i 7 -a 1 -x {3.0 0.0 -1 ------- null}
r -t 0.9325 -s 2 -d 0 -p ack -e 40 -c 1 -i 5 -a 1 -x {3.0 0.0 1 ------- null}
+ -t 0.9325 -s 0 -d 2 -p tcp -e 140 -c 1 -i 8 -a 1 -x {0.0 3.0 3 ------- null}
- -t 0.9325 -s 0 -d 2 -p tcp -e 140 -c 1 -i 8 -a 1 -x {0.0 3.0 3 ------- null}
h -t 0.9325 -s 0 -d 2 -p tcp -e 140 -c 1 -i 8 -a 1 -x {0.0 3.0 -1 ------- null}
+ -t 0.9325 -s 0 -d 2 -p tcp -e 140 -c 1 -i 9 -a 1 -x {0.0 3.0 4 ------- null}
r -t 0.935 -s 2 -d 1 -p ack -e 40 -c 2 -i 6 -a 2 -x {3.1 1.0 0 ------- null}
+ -t 0.935 -s 1 -d 2 -p tcp -e 140 -c 2 -i 10 -a 2 -x {1.0 3.1 1 ------- null}
- -t 0.935 -s 1 -d 2 -p tcp -e 140 -c 2 -i 10 -a 2 -x {1.0 3.1 1 ------- null}
h -t 0.935 -s 1 -d 2 -p tcp -e 140 -c 2 -i 10 -a 2 -x {1.0 3.1 -1 ------- null}
+ -t 0.935 -s 1 -d 2 -p tcp -e 140 -c 2 -i 11 -a 2 -x {1.0 3.1 2 ------- null}
- -t 0.94125 -s 0 -d 2 -p tcp -e 140 -c 1 -i 9 -a 1 -x {0.0 3.0 4 ------- null}
h -t 0.94125 -s 0 -d 2 -p tcp -e 140 -c 1 -i 9 -a 1 -x {0.0 3.0 -1 ------- null}
r -t 0.94375 -s 2 -d 0 -p ack -e 40 -c 1 -i 7 -a 1 -x {3.0 0.0 2 ------- null}
+ -t 0.94375 -s 0 -d 2 -p tcp -e 140 -c 1 -i 12 -a 1 -x {0.0 3.0 5 ------- null}
+ -t 0.94375 -s 0 -d 2 -p tcp -e 140 -c 1 -i 13 -a 1 -x {0.0 3.0 6 ------- null}
- -t 0.94375 -s 1 -d 2 -p tcp -e 140 -c 2 -i 11 -a 2 -x {1.0 3.1 2 ------- null}
h -t 0.94375 -s 1 -d 2 -p tcp -e 140 -c 2 -i 11 -a 2 -x {1.0 3.1 -1 ------- null}
- -t 0.95 -s 0 -d 2 -p tcp -e 140 -c 1 -i 12 -a 1 -x {0.0 3.0 5 ------- null}
h -t 0.95 -s 0 -d 2 -p tcp -e 140 -c 1 -i 12 -a 1 -x {0.0 3.0 -1 ------- null}
- -t 0.95875 -s 0 -d 2 -p tcp -e 140 -c 1 -i 13 -a 1 -x {0.0 3.0 6 ------- null}
h -t 0.95875 -s 0 -d 2 -p tcp -e 140 -c 1 -i 13 -a 1 -x {0.0 3.0 -1 ------- null}
r -t 1.04125 -s 0 -d 2 -p tcp -e 140 -c 1 -i 8 -a 1 -x {0.0 3.0 3 ------- null}
+ -t 1.04125 -s 2 -d 3 -p tcp -e 140 -c 1 -i 8 -a 1 -x {0.0 3.0 3 ------- null}
- -t 1.04125 -s 2 -d 3 -p tcp -e 140 -c 1 -i 8 -a 1 -x {0.0 3.0 3 ------- null}
h -t 1.04125 -s 2 -d 3 -p tcp -e 140 -c 1 -i 8 -a 1 -x {0.0 3.0 -1 ------- null}
r -t 1.04375 -s 1 -d 2 -p tcp -e 140 -c 2 -i 10 -a 2 -x {1.0 3.1 1 ------- null}
+ -t 1.04375 -s 2 -d 3 -p tcp -e 140 -c 2 -i 10 -a 2 -x {1.0 3.1 1 ------- null}
r -t 1.05 -s 0 -d 2 -p tcp -e 140 -c 1 -i 9 -a 1 -x {0.0 3.0 4 ------- null}
+ -t 1.05 -s 2 -d 3 -p tcp -e 140 -c 1 -i 9 -a 1 -x {0.0 3.0 4 ------- null}
- -t 1.05 -s 2 -d 3 -p tcp -e 140 -c 2 -i 10 -a 2 -x {1.0 3.1 1 ------- null}
h -t 1.05 -s 2 -d 3 -p tcp -e 140 -c 2 -i 10 -a 2 -x {1.0 3.1 -1 ------- null}
r -t 1.0525 -s 1 -d 2 -p tcp -e 140 -c 2 -i 11 -a 2 -x {1.0 3.1 2 ------- null}
+ -t 1.0525 -s 2 -d 3 -p tcp -e 140 -c 2 -i 11 -a 2 -x {1.0 3.1 2 ------- null}
r -t 1.05875 -s 0 -d 2 -p tcp -e 140 -c 1 -i 12 -a 1 -x {0.0 3.0 5 ------- null}
+ -t 1.05875 -s 2 -d 3 -p tcp -e 140 -c 1 -i 12 -a 1 -x {0.0 3.0 5 ------- null}
- -t 1.05875 -s 2 -d 3 -p tcp -e 140 -c 1 -i 9 -a 1 -x {0.0 3.0 4 ------- null}
h -t 1.05875 -s 2 -d 3 -p tcp -e 140 -c 1 -i 9 -a 1 -x {0.0 3.0 -1 ------- null}
r -t 1.0675 -s 0 -d 2 -p tcp -e 140 -c 1 -i 13 -a 1 -x {0.0 3.0 6 ------- null}
+ -t 1.0675 -s 2 -d 3 -p tcp -e 140 -c 1 -i 13 -a 1 -x {0.0 3.0 6 ------- null}
- -t 1.0675 -s 2 -d 3 -p tcp -e 140 -c 2 -i 11 -a 2 -x {1.0 3.1 2 ------- null}
h -t 1.0675 -s 2 -d 3 -p tcp -e 140 -c 2 -i 11 -a 2 -x {1.0 3.1 -1 ------- null}
- -t 1.07625 -s 2 -d 3 -p tcp -e 140 -c 1 -i 12 -a 1 -x {0.0 3.0 5 ------- null}
h -t 1.07625 -s 2 -d 3 -p tcp -e 140 -c 1 -i 12 -a 1 -x {0.0 3.0 -1 ------- null}
- -t 1.085 -s 2 -d 3 -p tcp -e 140 -c 1 -i 13 -a 1 -x {0.0 3.0 6 ------- null}
h -t 1.085 -s 2 -d 3 -p tcp -e 140 -c 1 -i 13 -a 1 -x {0.0 3.0 -1 ------- null}
r -t 1.15 -s 2 -d 3 -p tcp -e 140 -c 1 -i 8 -a 1 -x {0.0 3.0 3 ------- null}
+ -t 1.15 -s 3 -d 2 -p ack -e 40 -c 1 -i 14 -a 1 -x {3.0 0.0 3 ------- null}
- -t 1.15 -s 3 -d 2 -p ack -e 40 -c 1 -i 14 -a 1 -x {3.0 0.0 3 ------- null}
h -t 1.15 -s 3 -d 2 -p ack -e 40 -c 1 -i 14 -a 1 -x {3.0 0.0 -1 ------- null}
r -t 1.15875 -s 2 -d 3 -p tcp -e 140 -c 2 -i 10 -a 2 -x {1.0 3.1 1 ------- null}
+ -t 1.15875 -s 3 -d 2 -p ack -e 40 -c 2 -i 15 -a 2 -x {3.1 1.0 1 ------- null}
- -t 1.15875 -s 3 -d 2 -p ack -e 40 -c 2 -i 15 -a 2 -x {3.1 1.0 1 ------- null}
h -t 1.15875 -s 3 -d 2 -p ack -e 40 -c 2 -i 15 -a 2 -x {3.1 1.0 -1 ------- null}
r -t 1.1675 -s 2 -d 3 -p tcp -e 140 -c 1 -i 9 -a 1 -x {0.0 3.0 4 ------- null}
+ -t 1.1675 -s 3 -d 2 -p ack -e 40 -c 1 -i 16 -a 1 -x {3.0 0.0 4 ------- null}
- -t 1.1675 -s 3 -d 2 -p ack -e 40 -c 1 -i 16 -a 1 -x {3.0 0.0 4 ------- null}
h -t 1.1675 -s 3 -d 2 -p ack -e 40 -c 1 -i 16 -a 1 -x {3.0 0.0 -1 ------- null}
r -t 1.17625 -s 2 -d 3 -p tcp -e 140 -c 2 -i 11 -a 2 -x {1.0 3.1 2 ------- null}
+ -t 1.17625 -s 3 -d 2 -p ack -e 40 -c 2 -i 17 -a 2 -x {3.1 1.0 2 ------- null}
- -t 1.17625 -s 3 -d 2 -p ack -e 40 -c 2 -i 17 -a 2 -x {3.1 1.0 2 ------- null}
h -t 1.17625 -s 3 -d 2 -p ack -e 40 -c 2 -i 17 -a 2 -x {3.1 1.0 -1 ------- null}
r -t 1.185 -s 2 -d 3 -p tcp -e 140 -c 1 -i 12 -a 1 -x {0.0 3.0 5 ------- null}
+ -t 1.185 -s 3 -d 2 -p ack -e 40 -c 1 -i 18 -a 1 -x {3.0 0.0 5 ------- null}
- -t 1.185 -s 3 -d 2 -p ack -e 40 -c 1 -i 18 -a 1 -x {3.0 0.0 5 ------- null}
h -t 1.185 -s 3 -d 2 -p ack -e 40 -c 1 -i 18 -a 1 -x {3.0 0.0 -1 ------- null}
r -t 1.19375 -s 2 -d 3 -p tcp -e 140 -c 1 -i 13 -a 1 -x {0.0 3.0 6 ------- null}
+ -t 1.19375 -s 3 -d 2 -p ack -e 40 -c 1 -i 19 -a 1 -x {3.0 0.0 6 ------- null}
- -t 1.19375 -s 3 -d 2 -p ack -e 40 -c 1 -i 19 -a 1 -x {3.0 0.0 6 ------- null}
h -t 1.19375 -s 3 -d 2 -p ack -e 40 -c 1 -i 19 -a 1 -x {3.0 0.0 -1 ------- null}
r -t 1.2525 -s 3 -d 2 -p ack -e 40 -c 1 -i 14 -a 1 -x {3.0 0.0 3 ------- null}
+ -t 1.2525 -s 2 -d 0 -p ack -e 40 -c 1 -i 14 -a 1 -x {3.0 0.0 3 ------- null}
- -t 1.2525 -s 2 -d 0 -p ack -e 40 -c 1 -i 14 -a 1 -x {3.0 0.0 3 ------- null}
h -t 1.2525 -s 2 -d 0 -p ack -e 40 -c 1 -i 14 -a 1 -x {3.0 0.0 -1 ------- null}
r -t 1.26125 -s 3 -d 2 -p ack -e 40 -c 2 -i 15 -a 2 -x {3.1 1.0 1 ------- null}
+ -t 1.26125 -s 2 -d 1 -p ack -e 40 -c 2 -i 15 -a 2 -x {3.1 1.0 1 ------- null}
- -t 1.26125 -s 2 -d 1 -p ack -e 40 -c 2 -i 15 -a 2 -x {3.1 1.0 1 ------- null}
h -t 1.26125 -s 2 -d 1 -p ack -e 40 -c 2 -i 15 -a 2 -x {3.1 1.0 -1 ------- null}
r -t 1.27 -s 3 -d 2 -p ack -e 40 -c 1 -i 16 -a 1 -x {3.0 0.0 4 ------- null}
+ -t 1.27 -s 2 -d 0 -p ack -e 40 -c 1 -i 16 -a 1 -x {3.0 0.0 4 ------- null}
- -t 1.27 -s 2 -d 0 -p ack -e 40 -c 1 -i 16 -a 1 -x {3.0 0.0 4 ------- null}
h -t 1.27 -s 2 -d 0 -p ack -e 40 -c 1 -i 16 -a 1 -x {3.0 0.0 -1 ------- null}
r -t 1.27875 -s 3 -d 2 -p ack -e 40 -c 2 -i 17 -a 2 -x {3.1 1.0 2 ------- null}
+ -t 1.27875 -s 2 -d 1 -p ack -e 40 -c 2 -i 17 -a 2 -x {3.1 1.0 2 ------- null}
- -t 1.27875 -s 2 -d 1 -p ack -e 40 -c 2 -i 17 -a 2 -x {3.1 1.0 2 ------- null}
h -t 1.27875 -s 2 -d 1 -p ack -e 40 -c 2 -i 17 -a 2 -x {3.1 1.0 -1 ------- null}
r -t 1.2875 -s 3 -d 2 -p ack -e 40 -c 1 -i 18 -a 1 -x {3.0 0.0 5 ------- null}
+ -t 1.2875 -s 2 -d 0 -p ack -e 40 -c 1 -i 18 -a 1 -x {3.0 0.0 5 ------- null}
- -t 1.2875 -s 2 -d 0 -p ack -e 40 -c 1 -i 18 -a 1 -x {3.0 0.0 5 ------- null}
h -t 1.2875 -s 2 -d 0 -p ack -e 40 -c 1 -i 18 -a 1 -x {3.0 0.0 -1 ------- null}
r -t 1.29625 -s 3 -d 2 -p ack -e 40 -c 1 -i 19 -a 1 -x {3.0 0.0 6 ------- null}
+ -t 1.29625 -s 2 -d 0 -p ack -e 40 -c 1 -i 19 -a 1 -x {3.0 0.0 6 ------- null}
- -t 1.29625 -s 2 -d 0 -p ack -e 40 -c 1 -i 19 -a 1 -x {3.0 0.0 6 ------- null}
h -t 1.29625 -s 2 -d 0 -p ack -e 40 -c 1 -i 19 -a 1 -x {3.0 0.0 -1 ------- null}
r -t 1.355 -s 2 -d 0 -p ack -e 40 -c 1 -i 14 -a 1 -x {3.0 0.0 3 ------- null}
+ -t 1.355 -s 0 -d 2 -p tcp -e 140 -c 1 -i 20 -a 1 -x {0.0 3.0 7 ------- null}
- -t 1.355 -s 0 -d 2 -p tcp -e 140 -c 1 -i 20 -a 1 -x {0.0 3.0 7 ------- null}
h -t 1.355 -s 0 -d 2 -p tcp -e 140 -c 1 -i 20 -a 1 -x {0.0 3.0 -1 ------- null}
+ -t 1.355 -s 0 -d 2 -p tcp -e 140 -c 1 -i 21 -a 1 -x {0.0 3.0 8 ------- null}
r -t 1.36375 -s 2 -d 1 -p ack -e 40 -c 2 -i 15 -a 2 -x {3.1 1.0 1 ------- null}
+ -t 1.36375 -s 1 -d 2 -p tcp -e 140 -c 2 -i 22 -a 2 -x {1.0 3.1 3 ------- null}
- -t 1.36375 -s 1 -d 2 -p tcp -e 140 -c 2 -i 22 -a 2 -x {1.0 3.1 3 ------- null}
h -t 1.36375 -s 1 -d 2 -p tcp -e 140 -c 2 -i 22 -a 2 -x {1.0 3.1 -1 ------- null}
+ -t 1.36375 -s 1 -d 2 -p tcp -e 140 -c 2 -i 23 -a 2 -x {1.0 3.1 4 ------- null}
- -t 1.36375 -s 0 -d 2 -p tcp -e 140 -c 1 -i 21 -a 1 -x {0.0 3.0 8 ------- null}
h -t 1.36375 -s 0 -d 2 -p tcp -e 140 -c 1 -i 21 -a 1 -x {0.0 3.0 -1 ------- null}
r -t 1.3725 -s 2 -d 0 -p ack -e 40 -c 1 -i 16 -a 1 -x {3.0 0.0 4 ------- null}
+ -t 1.3725 -s 0 -d 2 -p tcp -e 140 -c 1 -i 24 -a 1 -x {0.0 3.0 9 ------- null}
+ -t 1.3725 -s 0 -d 2 -p tcp -e 140 -c 1 -i 25 -a 1 -x {0.0 3.0 10 ------- null}
- -t 1.3725 -s 1 -d 2 -p tcp -e 140 -c 2 -i 23 -a 2 -x {1.0 3.1 4 ------- null}
h -t 1.3725 -s 1 -d 2 -p tcp -e 140 -c 2 -i 23 -a 2 -x {1.0 3.1 -1 ------- null}
- -t 1.3725 -s 0 -d 2 -p tcp -e 140 -c 1 -i 24 -a 1 -x {0.0 3.0 9 ------- null}
h -t 1.3725 -s 0 -d 2 -p tcp -e 140 -c 1 -i 24 -a 1 -x {0.0 3.0 -1 ------- null}
r -t 1.38125 -s 2 -d 1 -p ack -e 40 -c 2 -i 17 -a 2 -x {3.1 1.0 2 ------- null}
+ -t 1.38125 -s 1 -d 2 -p tcp -e 140 -c 2 -i 26 -a 2 -x {1.0 3.1 5 ------- null}
+ -t 1.38125 -s 1 -d 2 -p tcp -e 140 -c 2 -i 27 -a 2 -x {1.0 3.1 6 ------- null}
- -t 1.38125 -s 1 -d 2 -p tcp -e 140 -c 2 -i 26 -a 2 -x {1.0 3.1 5 ------- null}
h -t 1.38125 -s 1 -d 2 -p tcp -e 140 -c 2 -i 26 -a 2 -x {1.0 3.1 -1 ------- null}
- -t 1.38125 -s 0 -d 2 -p tcp -e 140 -c 1 -i 25 -a 1 -x {0.0 3.0 10 ------- null}
h -t 1.38125 -s 0 -d 2 -p tcp -e 140 -c 1 -i 25 -a 1 -x {0.0 3.0 -1 ------- null}
r -t 1.39 -s 2 -d 0 -p ack -e 40 -c 1 -i 18 -a 1 -x {3.0 0.0 5 ------- null}
+ -t 1.39 -s 0 -d 2 -p tcp -e 140 -c 1 -i 28 -a 1 -x {0.0 3.0 11 ------- null}
+ -t 1.39 -s 0 -d 2 -p tcp -e 140 -c 1 -i 29 -a 1 -x {0.0 3.0 12 ------- null}
- -t 1.39 -s 1 -d 2 -p tcp -e 140 -c 2 -i 27 -a 2 -x {1.0 3.1 6 ------- null}
h -t 1.39 -s 1 -d 2 -p tcp -e 140 -c 2 -i 27 -a 2 -x {1.0 3.1 -1 ------- null}
- -t 1.39 -s 0 -d 2 -p tcp -e 140 -c 1 -i 28 -a 1 -x {0.0 3.0 11 ------- null}
h -t 1.39 -s 0 -d 2 -p tcp -e 140 -c 1 -i 28 -a 1 -x {0.0 3.0 -1 ------- null}
r -t 1.39875 -s 2 -d 0 -p ack -e 40 -c 1 -i 19 -a 1 -x {3.0 0.0 6 ------- null}
+ -t 1.39875 -s 0 -d 2 -p tcp -e 140 -c 1 -i 30 -a 1 -x {0.0 3.0 13 ------- null}
+ -t 1.39875 -s 0 -d 2 -p tcp -e 140 -c 1 -i 31 -a 1 -x {0.0 3.0 14 ------- null}
- -t 1.39875 -s 0 -d 2 -p tcp -e 140 -c 1 -i 29 -a 1 -x {0.0 3.0 12 ------- null}
h -t 1.39875 -s 0 -d 2 -p tcp -e 140 -c 1 -i 29 -a 1 -x {0.0 3.0 -1 ------- null}
- -t 1.4075 -s 0 -d 2 -p tcp -e 140 -c 1 -i 30 -a 1 -x {0.0 3.0 13 ------- null}
h -t 1.4075 -s 0 -d 2 -p tcp -e 140 -c 1 -i 30 -a 1 -x {0.0 3.0 -1 ------- null}
- -t 1.41625 -s 0 -d 2 -p tcp -e 140 -c 1 -i 31 -a 1 -x {0.0 3.0 14 ------- null}
h -t 1.41625 -s 0 -d 2 -p tcp -e 140 -c 1 -i 31 -a 1 -x {0.0 3.0 -1 ------- null}
r -t 1.46375 -s 0 -d 2 -p tcp -e 140 -c 1 -i 20 -a 1 -x {0.0 3.0 7 ------- null}
+ -t 1.46375 -s 2 -d 3 -p tcp -e 140 -c 1 -i 20 -a 1 -x {0.0 3.0 7 ------- null}
- -t 1.46375 -s 2 -d 3 -p tcp -e 140 -c 1 -i 20 -a 1 -x {0.0 3.0 7 ------- null}
h -t 1.46375 -s 2 -d 3 -p tcp -e 140 -c 1 -i 20 -a 1 -x {0.0 3.0 -1 ------- null}
r -t 1.4725 -s 1 -d 2 -p tcp -e 140 -c 2 -i 22 -a 2 -x {1.0 3.1 3 ------- null}
+ -t 1.4725 -s 2 -d 3 -p tcp -e 140 -c 2 -i 22 -a 2 -x {1.0 3.1 3 ------- null}
r -t 1.4725 -s 0 -d 2 -p tcp -e 140 -c 1 -i 21 -a 1 -x {0.0 3.0 8 ------- null}
+ -t 1.4725 -s 2 -d 3 -p tcp -e 140 -c 1 -i 21 -a 1 -x {0.0 3.0 8 ------- null}
- -t 1.4725 -s 2 -d 3 -p tcp -e 140 -c 2 -i 22 -a 2 -x {1.0 3.1 3 ------- null}
h -t 1.4725 -s 2 -d 3 -p tcp -e 140 -c 2 -i 22 -a 2 -x {1.0 3.1 -1 ------- null}
r -t 1.48125 -s 1 -d 2 -p tcp -e 140 -c 2 -i 23 -a 2 -x {1.0 3.1 4 ------- null}
+ -t 1.48125 -s 2 -d 3 -p tcp -e 140 -c 2 -i 23 -a 2 -x {1.0 3.1 4 ------- null}
r -t 1.48125 -s 0 -d 2 -p tcp -e 140 -c 1 -i 24 -a 1 -x {0.0 3.0 9 ------- null}
+ -t 1.48125 -s 2 -d 3 -p tcp -e 140 -c 1 -i 24 -a 1 -x {0.0 3.0 9 ------- null}
- -t 1.48125 -s 2 -d 3 -p tcp -e 140 -c 1 -i 21 -a 1 -x {0.0 3.0 8 ------- null}
h -t 1.48125 -s 2 -d 3 -p tcp -e 140 -c 1 -i 21 -a 1 -x {0.0 3.0 -1 ------- null}
r -t 1.49 -s 1 -d 2 -p tcp -e 140 -c 2 -i 26 -a 2 -x {1.0 3.1 5 ------- null}
+ -t 1.49 -s 2 -d 3 -p tcp -e 140 -c 2 -i 26 -a 2 -x {1.0 3.1 5 ------- null}
r -t 1.49 -s 0 -d 2 -p tcp -e 140 -c 1 -i 25 -a 1 -x {0.0 3.0 10 ------- null}
+ -t 1.49 -s 2 -d 3 -p tcp -e 140 -c 1 -i 25 -a 1 -x {0.0 3.0 10 ------- null}
- -t 1.49 -s 2 -d 3 -p tcp -e 140 -c 2 -i 23 -a 2 -x {1.0 3.1 4 ------- null}
h -t 1.49 -s 2 -d 3 -p tcp -e 140 -c 2 -i 23 -a 2 -x {1.0 3.1 -1 ------- null}
r -t 1.49875 -s 1 -d 2 -p tcp -e 140 -c 2 -i 27 -a 2 -x {1.0 3.1 6 ------- null}
+ -t 1.49875 -s 2 -d 3 -p tcp -e 140 -c 2 -i 27 -a 2 -x {1.0 3.1 6 ------- null}
r -t 1.49875 -s 0 -d 2 -p tcp -e 140 -c 1 -i 28 -a 1 -x {0.0 3.0 11 ------- null}
+ -t 1.49875 -s 2 -d 3 -p tcp -e 140 -c 1 -i 28 -a 1 -x {0.0 3.0 11 ------- null}
- -t 1.49875 -s 2 -d 3 -p tcp -e 140 -c 1 -i 24 -a 1 -x {0.0 3.0 9 ------- null}
h -t 1.49875 -s 2 -d 3 -p tcp -e 140 -c 1 -i 24 -a 1 -x {0.0 3.0 -1 ------- null}
r -t 1.5075 -s 0 -d 2 -p tcp -e 140 -c 1 -i 29 -a 1 -x {0.0 3.0 12 ------- null}
+ -t 1.5075 -s 2 -d 3 -p tcp -e 140 -c 1 -i 29 -a 1 -x {0.0 3.0 12 ------- null}
- -t 1.5075 -s 2 -d 3 -p tcp -e 140 -c 2 -i 26 -a 2 -x {1.0 3.1 5 ------- null}
h -t 1.5075 -s 2 -d 3 -p tcp -e 140 -c 2 -i 26 -a 2 -x {1.0 3.1 -1 ------- null}
r -t 1.51625 -s 0 -d 2 -p tcp -e 140 -c 1 -i 30 -a 1 -x {0.0 3.0 13 ------- null}
+ -t 1.51625 -s 2 -d 3 -p tcp -e 140 -c 1 -i 30 -a 1 -x {0.0 3.0 13 ------- null}
- -t 1.51625 -s 2 -d 3 -p tcp -e 140 -c 1 -i 25 -a 1 -x {0.0 3.0 10 ------- null}
h -t 1.51625 -s 2 -d 3 -p tcp -e 140 -c 1 -i 25 -a 1 -x {0.0 3.0 -1 ------- null}
r -t 1.525 -s 0 -d 2 -p tcp -e 140 -c 1 -i 31 -a 1 -x {0.0 3.0 14 ------- null}
+ -t 1.525 -s 2 -d 3 -p tcp -e 140 -c 1 -i 31 -a 1 -x {0.0 3.0 14 ------- null}
- -t 1.525 -s 2 -d 3 -p tcp -e 140 -c 2 -i 27 -a 2 -x {1.0 3.1 6 ------- null}
h -t 1.525 -s 2 -d 3 -p tcp -e 140 -c 2 -i 27 -a 2 -x {1.0 3.1 -1 ------- null}
- -t 1.53375 -s 2 -d 3 -p tcp -e 140 -c 1 -i 28 -a 1 -x {0.0 3.0 11 ------- null}
h -t 1.53375 -s 2 -d 3 -p tcp -e 140 -c 1 -i 28 -a 1 -x {0.0 3.0 -1 ------- null}
- -t 1.5425 -s 2 -d 3 -p tcp -e 140 -c 1 -i 29 -a 1 -x {0.0 3.0 12 ------- null}
h -t 1.5425 -s 2 -d 3 -p tcp -e 140 -c 1 -i 29 -a 1 -x {0.0 3.0 -1 ------- null}
- -t 1.55125 -s 2 -d 3 -p tcp -e 140 -c 1 -i 30 -a 1 -x {0.0 3.0 13 ------- null}
h -t 1.55125 -s 2 -d 3 -p tcp -e 140 -c 1 -i 30 -a 1 -x {0.0 3.0 -1 ------- null}
- -t 1.56 -s 2 -d 3 -p tcp -e 140 -c 1 -i 31 -a 1 -x {0.0 3.0 14 ------- null}
h -t 1.56 -s 2 -d 3 -p tcp -e 140 -c 1 -i 31 -a 1 -x {0.0 3.0 -1 ------- null}
r -t 1.5725 -s 2 -d 3 -p tcp -e 140 -c 1 -i 20 -a 1 -x {0.0 3.0 7 ------- null}
+ -t 1.5725 -s 3 -d 2 -p ack -e 40 -c 1 -i 32 -a 1 -x {3.0 0.0 7 ------- null}
- -t 1.5725 -s 3 -d 2 -p ack -e 40 -c 1 -i 32 -a 1 -x {3.0 0.0 7 ------- null}
h -t 1.5725 -s 3 -d 2 -p ack -e 40 -c 1 -i 32 -a 1 -x {3.0 0.0 -1 ------- null}
r -t 1.58125 -s 2 -d 3 -p tcp -e 140 -c 2 -i 22 -a 2 -x {1.0 3.1 3 ------- null}
+ -t 1.58125 -s 3 -d 2 -p ack -e 40 -c 2 -i 33 -a 2 -x {3.1 1.0 3 ------- null}
- -t 1.58125 -s 3 -d 2 -p ack -e 40 -c 2 -i 33 -a 2 -x {3.1 1.0 3 ------- null}
h -t 1.58125 -s 3 -d 2 -p ack -e 40 -c 2 -i 33 -a 2 -x {3.1 1.0 -1 ------- null}
r -t 1.59 -s 2 -d 3 -p tcp -e 140 -c 1 -i 21 -a 1 -x {0.0 3.0 8 ------- null}
+ -t 1.59 -s 3 -d 2 -p ack -e 40 -c 1 -i 34 -a 1 -x {3.0 0.0 8 ------- null}
- -t 1.59 -s 3 -d 2 -p ack -e 40 -c 1 -i 34 -a 1 -x {3.0 0.0 8 ------- null}
h -t 1.59 -s 3 -d 2 -p ack -e 40 -c 1 -i 34 -a 1 -x {3.0 0.0 -1 ------- null}
r -t 1.59875 -s 2 -d 3 -p tcp -e 140 -c 2 -i 23 -a 2 -x {1.0 3.1 4 ------- null}
+ -t 1.59875 -s 3 -d 2 -p ack -e 40 -c 2 -i 35 -a 2 -x {3.1 1.0 4 ------- null}
- -t 1.59875 -s 3 -d 2 -p ack -e 40 -c 2 -i 35 -a 2 -x {3.1 1.0 4 ------- null}
h -t 1.59875 -s 3 -d 2 -p ack -e 40 -c 2 -i 35 -a 2 -x {3.1 1.0 -1 ------- null}
r -t 1.6075 -s 2 -d 3 -p tcp -e 140 -c 1 -i 24 -a 1 -x {0.0 3.0 9 ------- null}
+ -t 1.6075 -s 3 -d 2 -p ack -e 40 -c 1 -i 36 -a 1 -x {3.0 0.0 9 ------- null}
- -t 1.6075 -s 3 -d 2 -p ack -e 40 -c 1 -i 36 -a 1 -x {3.0 0.0 9 ------- null}
h -t 1.6075 -s 3 -d 2 -p ack -e 40 -c 1 -i 36 -a 1 -x {3.0 0.0 -1 ------- null}
r -t 1.61625 -s 2 -d 3 -p tcp -e 140 -c 2 -i 26 -a 2 -x {1.0 3.1 5 ------- null}
+ -t 1.61625 -s 3 -d 2 -p ack -e 40 -c 2 -i 37 -a 2 -x {3.1 1.0 5 ------- null}
- -t 1.61625 -s 3 -d 2 -p ack -e 40 -c 2 -i 37 -a 2 -x {3.1 1.0 5 ------- null}
h -t 1.61625 -s 3 -d 2 -p ack -e 40 -c 2 -i 37 -a 2 -x {3.1 1.0 -1 ------- null}
r -t 1.625 -s 2 -d 3 -p tcp -e 140 -c 1 -i 25 -a 1 -x {0.0 3.0 10 ------- null}
+ -t 1.625 -s 3 -d 2 -p ack -e 40 -c 1 -i 38 -a 1 -x {3.0 0.0 10 ------- null}
- -t 1.625 -s 3 -d 2 -p ack -e 40 -c 1 -i 38 -a 1 -x {3.0 0.0 10 ------- null}
h -t 1.625 -s 3 -d 2 -p ack -e 40 -c 1 -i 38 -a 1 -x {3.0 0.0 -1 ------- null}
r -t 1.63375 -s 2 -d 3 -p tcp -e 140 -c 2 -i 27 -a 2 -x {1.0 3.1 6 ------- null}
+ -t 1.63375 -s 3 -d 2 -p ack -e 40 -c 2 -i 39 -a 2 -x {3.1 1.0 6 ------- null}
- -t 1.63375 -s 3 -d 2 -p ack -e 40 -c 2 -i 39 -a 2 -x {3.1 1.0 6 ------- null}
h -t 1.63375 -s 3 -d 2 -p ack -e 40 -c 2 -i 39 -a 2 -x {3.1 1.0 -1 ------- null}
r -t 1.6425 -s 2 -d 3 -p tcp -e 140 -c 1 -i 28 -a 1 -x {0.0 3.0 11 ------- null}
+ -t 1.6425 -s 3 -d 2 -p ack -e 40 -c 1 -i 40 -a 1 -x {3.0 0.0 11 ------- null}
- -t 1.6425 -s 3 -d 2 -p ack -e 40 -c 1 -i 40 -a 1 -x {3.0 0.0 11 ------- null}
h -t 1.6425 -s 3 -d 2 -p ack -e 40 -c 1 -i 40 -a 1 -x {3.0 0.0 -1 ------- null}
r -t 1.65125 -s 2 -d 3 -p tcp -e 140 -c 1 -i 29 -a 1 -x {0.0 3.0 12 ------- null}
+ -t 1.65125 -s 3 -d 2 -p ack -e 40 -c 1 -i 41 -a 1 -x {3.0 0.0 12 ------- null}
- -t 1.65125 -s 3 -d 2 -p ack -e 40 -c 1 -i 41 -a 1 -x {3.0 0.0 12 ------- null}
h -t 1.65125 -s 3 -d 2 -p ack -e 40 -c 1 -i 41 -a 1 -x {3.0 0.0 -1 ------- null}
r -t 1.66 -s 2 -d 3 -p tcp -e 140 -c 1 -i 30 -a 1 -x {0.0 3.0 13 ------- null}
+ -t 1.66 -s 3 -d 2 -p ack -e 40 -c 1 -i 42 -a 1 -x {3.0 0.0 13 ------- null}
- -t 1.66 -s 3 -d 2 -p ack -e 40 -c 1 -i 42 -a 1 -x {3.0 0.0 13 ------- null}
h -t 1.66 -s 3 -d 2 -p ack -e 40 -c 1 -i 42 -a 1 -x {3.0 0.0 -1 ------- null}
r -t 1.66875 -s 2 -d 3 -p tcp -e 140 -c 1 -i 31 -a 1 -x {0.0 3.0 14 ------- null}
+ -t 1.66875 -s 3 -d 2 -p ack -e 40 -c 1 -i 43 -a 1 -x {3.0 0.0 14 ------- null}
- -t 1.66875 -s 3 -d 2 -p ack -e 40 -c 1 -i 43 -a 1 -x {3.0 0.0 14 ------- null}
h -t 1.66875 -s 3 -d 2 -p ack -e 40 -c 1 -i 43 -a 1 -x {3.0 0.0 -1 ------- null}
r -t 1.675 -s 3 -d 2 -p ack -e 40 -c 1 -i 32 -a 1 -x {3.0 0.0 7 ------- null}
+ -t 1.675 -s 2 -d 0 -p ack -e 40 -c 1 -i 32 -a 1 -x {3.0 0.0 7 ------- null}
- -t 1.675 -s 2 -d 0 -p ack -e 40 -c 1 -i 32 -a 1 -x {3.0 0.0 7 ------- null}
h -t 1.675 -s 2 -d 0 -p ack -e 40 -c 1 -i 32 -a 1 -x {3.0 0.0 -1 ------- null}
r -t 1.68375 -s 3 -d 2 -p ack -e 40 -c 2 -i 33 -a 2 -x {3.1 1.0 3 ------- null}
+ -t 1.68375 -s 2 -d 1 -p ack -e 40 -c 2 -i 33 -a 2 -x {3.1 1.0 3 ------- null}
- -t 1.68375 -s 2 -d 1 -p ack -e 40 -c 2 -i 33 -a 2 -x {3.1 1.0 3 ------- null}
h -t 1.68375 -s 2 -d 1 -p ack -e 40 -c 2 -i 33 -a 2 -x {3.1 1.0 -1 ------- null}
r -t 1.6925 -s 3 -d 2 -p ack -e 40 -c 1 -i 34 -a 1 -x {3.0 0.0 8 ------- null}
+ -t 1.6925 -s 2 -d 0 -p ack -e 40 -c 1 -i 34 -a 1 -x {3.0 0.0 8 ------- null}
- -t 1.6925 -s 2 -d 0 -p ack -e 40 -c 1 -i 34 -a 1 -x {3.0 0.0 8 ------- null}
h -t 1.6925 -s 2 -d 0 -p ack -e 40 -c 1 -i 34 -a 1 -x {3.0 0.0 -1 ------- null}
r -t 1.70125 -s 3 -d 2 -p ack -e 40 -c 2 -i 35 -a 2 -x {3.1 1.0 4 ------- null}
+ -t 1.70125 -s 2 -d 1 -p ack -e 40 -c 2 -i 35 -a 2 -x {3.1 1.0 4 ------- null}
- -t 1.70125 -s 2 -d 1 -p ack -e 40 -c 2 -i 35 -a 2 -x {3.1 1.0 4 ------- null}
h -t 1.70125 -s 2 -d 1 -p ack -e 40 -c 2 -i 35 -a 2 -x {3.1 1.0 -1 ------- null}
r -t 1.71 -s 3 -d 2 -p ack -e 40 -c 1 -i 36 -a 1 -x {3.0 0.0 9 ------- null}
+ -t 1.71 -s 2 -d 0 -p ack -e 40 -c 1 -i 36 -a 1 -x {3.0 0.0 9 ------- null}
- -t 1.71 -s 2 -d 0 -p ack -e 40 -c 1 -i 36 -a 1 -x {3.0 0.0 9 ------- null}
h -t 1.71 -s 2 -d 0 -p ack -e 40 -c 1 -i 36 -a 1 -x {3.0 0.0 -1 ------- null}
r -t 1.71875 -s 3 -d 2 -p ack -e 40 -c 2 -i 37 -a 2 -x {3.1 1.0 5 ------- null}
+ -t 1.71875 -s 2 -d 1 -p ack -e 40 -c 2 -i 37 -a 2 -x {3.1 1.0 5 ------- null}
- -t 1.71875 -s 2 -d 1 -p ack -e 40 -c 2 -i 37 -a 2 -x {3.1 1.0 5 ------- null}
h -t 1.71875 -s 2 -d 1 -p ack -e 40 -c 2 -i 37 -a 2 -x {3.1 1.0 -1 ------- null}
r -t 1.7275 -s 3 -d 2 -p ack -e 40 -c 1 -i 38 -a 1 -x {3.0 0.0 10 ------- null}
+ -t 1.7275 -s 2 -d 0 -p ack -e 40 -c 1 -i 38 -a 1 -x {3.0 0.0 10 ------- null}
- -t 1.7275 -s 2 -d 0 -p ack -e 40 -c 1 -i 38 -a 1 -x {3.0 0.0 10 ------- null}
h -t 1.7275 -s 2 -d 0 -p ack -e 40 -c 1 -i 38 -a 1 -x {3.0 0.0 -1 ------- null}
r -t 1.73625 -s 3 -d 2 -p ack -e 40 -c 2 -i 39 -a 2 -x {3.1 1.0 6 ------- null}
+ -t 1.73625 -s 2 -d 1 -p ack -e 40 -c 2 -i 39 -a 2 -x {3.1 1.0 6 ------- null}
- -t 1.73625 -s 2 -d 1 -p ack -e 40 -c 2 -i 39 -a 2 -x {3.1 1.0 6 ------- null}
h -t 1.73625 -s 2 -d 1 -p ack -e 40 -c 2 -i 39 -a 2 -x {3.1 1.0 -1 ------- null}
r -t 1.745 -s 3 -d 2 -p ack -e 40 -c 1 -i 40 -a 1 -x {3.0 0.0 11 ------- null}
+ -t 1.745 -s 2 -d 0 -p ack -e 40 -c 1 -i 40 -a 1 -x {3.0 0.0 11 ------- null}
- -t 1.745 -s 2 -d 0 -p ack -e 40 -c 1 -i 40 -a 1 -x {3.0 0.0 11 ------- null}
h -t 1.745 -s 2 -d 0 -p ack -e 40 -c 1 -i 40 -a 1 -x {3.0 0.0 -1 ------- null}
r -t 1.75375 -s 3 -d 2 -p ack -e 40 -c 1 -i 41 -a 1 -x {3.0 0.0 12 ------- null}
+ -t 1.75375 -s 2 -d 0 -p ack -e 40 -c 1 -i 41 -a 1 -x {3.0 0.0 12 ------- null}
- -t 1.75375 -s 2 -d 0 -p ack -e 40 -c 1 -i 41 -a 1 -x {3.0 0.0 12 ------- null}
h -t 1.75375 -s 2 -d 0 -p ack -e 40 -c 1 -i 41 -a 1 -x {3.0 0.0 -1 ------- null}
r -t 1.7625 -s 3 -d 2 -p ack -e 40 -c 1 -i 42 -a 1 -x {3.0 0.0 13 ------- null}
+ -t 1.7625 -s 2 -d 0 -p ack -e 40 -c 1 -i 42 -a 1 -x {3.0 0.0 13 ------- null}
- -t 1.7625 -s 2 -d 0 -p ack -e 40 -c 1 -i 42 -a 1 -x {3.0 0.0 13 ------- null}
h -t 1.7625 -s 2 -d 0 -p ack -e 40 -c 1 -i 42 -a 1 -x {3.0 0.0 -1 ------- null}
r -t 1.77125 -s 3 -d 2 -p ack -e 40 -c 1 -i 43 -a 1 -x {3.0 0.0 14 ------- null}
+ -t 1.77125 -s 2 -d 0 -p ack -e 40 -c 1 -i 43 -a 1 -x {3.0 0.0 14 ------- null}
- -t 1.77125 -s 2 -d 0 -p ack -e 40 -c 1 -i 43 -a 1 -x {3.0 0.0 14 ------- null}
h -t 1.77125 -s 2 -d 0 -p ack -e 40 -c 1 -i 43 -a 1 -x {3.0 0.0 -1 ------- null}
r -t 1.7775 -s 2 -d 0 -p ack -e 40 -c 1 -i 32 -a 1 -x {3.0 0.0 7 ------- null}
+ -t 1.7775 -s 0 -d 2 -p tcp -e 140 -c 1 -i 44 -a 1 -x {0.0 3.0 15 ------- null}
- -t 1.7775 -s 0 -d 2 -p tcp -e 140 -c 1 -i 44 -a 1 -x {0.0 3.0 15 ------- null}
h -t 1.7775 -s 0 -d 2 -p tcp -e 140 -c 1 -i 44 -a 1 -x {0.0 3.0 -1 ------- null}
+ -t 1.7775 -s 0 -d 2 -p tcp -e 140 -c 1 -i 45 -a 1 -x {0.0 3.0 16 ------- null}
r -t 1.78625 -s 2 -d 1 -p ack -e 40 -c 2 -i 33 -a 2 -x {3.1 1.0 3 ------- null}
+ -t 1.78625 -s 1 -d 2 -p tcp -e 140 -c 2 -i 46 -a 2 -x {1.0 3.1 7 ------- null}
- -t 1.78625 -s 1 -d 2 -p tcp -e 140 -c 2 -i 46 -a 2 -x {1.0 3.1 7 ------- null}
h -t 1.78625 -s 1 -d 2 -p tcp -e 140 -c 2 -i 46 -a 2 -x {1.0 3.1 -1 ------- null}
+ -t 1.78625 -s 1 -d 2 -p tcp -e 140 -c 2 -i 47 -a 2 -x {1.0 3.1 8 ------- null}
- -t 1.78625 -s 0 -d 2 -p tcp -e 140 -c 1 -i 45 -a 1 -x {0.0 3.0 16 ------- null}
h -t 1.78625 -s 0 -d 2 -p tcp -e 140 -c 1 -i 45 -a 1 -x {0.0 3.0 -1 ------- null}
r -t 1.795 -s 2 -d 0 -p ack -e 40 -c 1 -i 34 -a 1 -x {3.0 0.0 8 ------- null}
+ -t 1.795 -s 0 -d 2 -p tcp -e 140 -c 1 -i 48 -a 1 -x {0.0 3.0 17 ------- null}
+ -t 1.795 -s 0 -d 2 -p tcp -e 140 -c 1 -i 49 -a 1 -x {0.0 3.0 18 ------- null}
- -t 1.795 -s 1 -d 2 -p tcp -e 140 -c 2 -i 47 -a 2 -x {1.0 3.1 8 ------- null}
h -t 1.795 -s 1 -d 2 -p tcp -e 140 -c 2 -i 47 -a 2 -x {1.0 3.1 -1 ------- null}
- -t 1.795 -s 0 -d 2 -p tcp -e 140 -c 1 -i 48 -a 1 -x {0.0 3.0 17 ------- null}
h -t 1.795 -s 0 -d 2 -p tcp -e 140 -c 1 -i 48 -a 1 -x {0.0 3.0 -1 ------- null}
r -t 1.80375 -s 2 -d 1 -p ack -e 40 -c 2 -i 35 -a 2 -x {3.1 1.0 4 ------- null}
+ -t 1.80375 -s 1 -d 2 -p tcp -e 140 -c 2 -i 50 -a 2 -x {1.0 3.1 9 ------- null}
+ -t 1.80375 -s 1 -d 2 -p tcp -e 140 -c 2 -i 51 -a 2 -x {1.0 3.1 10 ------- null}
- -t 1.80375 -s 1 -d 2 -p tcp -e 140 -c 2 -i 50 -a 2 -x {1.0 3.1 9 ------- null}
h -t 1.80375 -s 1 -d 2 -p tcp -e 140 -c 2 -i 50 -a 2 -x {1.0 3.1 -1 ------- null}
- -t 1.80375 -s 0 -d 2 -p tcp -e 140 -c 1 -i 49 -a 1 -x {0.0 3.0 18 ------- null}
h -t 1.80375 -s 0 -d 2 -p tcp -e 140 -c 1 -i 49 -a 1 -x {0.0 3.0 -1 ------- null}
r -t 1.8125 -s 2 -d 0 -p ack -e 40 -c 1 -i 36 -a 1 -x {3.0 0.0 9 ------- null}