V -t * -v 1.0a5 -a 0
A -t * -n 1 -p 0 -o 0x7fffffff -c 30 -a 1
A -t * -h 1 -m 1073741823 -s 0
c -t * -i 1 -n Red
c -t * -i 2 -n Green
n -t * -a 8 -s 8 -S UP -v circle -c black -i black
n -t * -a 4 -s 4 -S UP -v circle -c black -i black
n -t * -a 0 -s 0 -S UP -v circle -c black -i black
n -t * -a 10 -s 10 -S UP -v circle -c black -i black
n -t * -a 9 -s 9 -S UP -v circle -c black -i black
n -t * -a 5 -s 5 -S UP -v circle -c black -i black
n -t * -a 1 -s 1 -S UP -v circle -c black -i black
n -t * -a 6 -s 6 -S UP -v circle -c black -i black
n -t * -a 2 -s 2 -S UP -v circle -c black -i black
n -t * -a 7 -s 7 -S UP -v circle -c black -i black
n -t * -a 3 -s 3 -S UP -v circle -c black -i black
l -t * -s 3 -d 0 -S UP -r 128000 -D 0.01 -c black -o left-up
l -t * -s 3 -d 1 -S UP -r 128000 -D 0.01 -c black -o left
l -t * -s 3 -d 2 -S UP -r 128000 -D 0.01 -c black -o left-down
l -t * -s 3 -d 4 -S UP -r 128000 -D 0.01 -c black -o right-up
l -t * -s 3 -d 6 -S UP -r 128000 -D 0.01 -c black -o right-down
l -t * -s 4 -d 5 -S UP -r 128000 -D 0.01 -c black -o right
l -t * -s 5 -d 8 -S UP -r 128000 -D 0.01 -c black -o right
l -t * -s 6 -d 7 -S UP -r 128000 -D 0.01 -c black -o right
l -t * -s 5 -d 7 -S UP -r 128000 -D 0.01 -c black -o down
l -t * -s 7 -d 9 -S UP -r 128000 -D 0.01 -c black -o right
l -t * -s 7 -d 10 -S UP -r 128000 -D 0.01 -c black -o down
q -t * -s 3 -d 4 -a 0.5
q -t * -s 4 -d 3 -a 0.5
+ -t 0.1 -s 0 -d 3 -p tcp -e 40 -c 1 -i 0 -a 1 -x {0.0 8.0 0 ------- null}
- -t 0.1 -s 0 -d 3 -p tcp -e 40 -c 1 -i 0 -a 1 -x {0.0 8.0 0 ------- null}
h -t 0.1 -s 0 -d 3 -p tcp -e 40 -c 1 -i 0 -a 1 -x {0.0 8.0 -1 ------- null}
r -t 0.1125 -s 0 -d 3 -p tcp -e 40 -c 1 -i 0 -a 1 -x {0.0 8.0 0 ------- null}
+ -t 0.1125 -s 3 -d 4 -p tcp -e 40 -c 1 -i 0 -a 1 -x {0.0 8.0 0 ------- null}
- -t 0.1125 -s 3 -d 4 -p tcp -e 40 -c 1 -i 0 -a 1 -x {0.0 8.0 0 ------- null}
h -t 0.1125 -s 3 -d 4 -p tcp -e 40 -c 1 -i 0 -a 1 -x {0.0 8.0 -1 ------- null}
r -t 0.125 -s 3 -d 4 -p tcp -e 40 -c 1 -i 0 -a 1 -x {0.0 8.0 0 ------- null}
+ -t 0.125 -s 4 -d 5 -p tcp -e 40 -c 1 -i 0 -a 1 -x {0.0 8.0 0 ------- null}
- -t 0.125 -s 4 -d 5 -p tcp -e 40 -c 1 -i 0 -a 1 -x {0.0 8.0 0 ------- null}
h -t 0.125 -s 4 -d 5 -p tcp -e 40 -c 1 -i 0 -a 1 -x {0.0 8.0 -1 ------- null}
r -t 0.1375 -s 4 -d 5 -p tcp -e 40 -c 1 -i 0 -a 1 -x {0.0 8.0 0 ------- null}
+ -t 0.1375 -s 5 -d 8 -p tcp -e 40 -c 1 -i 0 -a 1 -x {0.0 8.0 0 ------- null}
- -t 0.1375 -s 5 -d 8 -p tcp -e 40 -c 1 -i 0 -a 1 -x {0.0 8.0 0 ------- null}
h -t 0.1375 -s 5 -d 8 -p tcp -e 40 -c 1 -i 0 -a 1 -x {0.0 8.0 -1 ------- null}
r -t 0.15 -s 5 -d 8 -p tcp -e 40 -c 1 -i 0 -a 1 -x {0.0 8.0 0 ------- null}
+ -t 0.15 -s 8 -d 5 -p ack -e 40 -c 1 -i 1 -a 1 -x {8.0 0.0 0 ------- null}
- -t 0.15 -s 8 -d 5 -p ack -e 40 -c 1 -i 1 -a 1 -x {8.0 0.0 0 ------- null}
h -t 0.15 -s 8 -d 5 -p ack -e 40 -c 1 -i 1 -a 1 -x {8.0 0.0 -1 ------- null}
r -t 0.1625 -s 8 -d 5 -p ack -e 40 -c 1 -i 1 -a 1 -x {8.0 0.0 0 ------- null}
+ -t 0.1625 -s 5 -d 4 -p ack -e 40 -c 1 -i 1 -a 1 -x {8.0 0.0 0 ------- null}
- -t 0.1625 -s 5 -d 4 -p ack -e 40 -c 1 -i 1 -a 1 -x {8.0 0.0 0 ------- null}
h -t 0.1625 -s 5 -d 4 -p ack -e 40 -c 1 -i 1 -a 1 -x {8.0 0.0 -1 ------- null}
r -t 0.175 -s 5 -d 4 -p ack -e 40 -c 1 -i 1 -a 1 -x {8.0 0.0 0 ------- null}
+ -t 0.175 -s 4 -d 3 -p ack -e 40 -c 1 -i 1 -a 1 -x {8.0 0.0 0 ------- null}
- -t 0.175 -s 4 -d 3 -p ack -e 40 -c 1 -i 1 -a 1 -x {8.0 0.0 0 ------- null}
h -t 0.175 -s 4 -d 3 -p ack -e 40 -c 1 -i 1 -a 1 -x {8.0 0.0 -1 ------- null}
r -t 0.1875 -s 4 -d 3 -p ack -e 40 -c 1 -i 1 -a 1 -x {8.0 0.0 0 ------- null}
+ -t 0.1875 -s 3 -d 0 -p ack -e 40 -c 1 -i 1 -a 1 -x {8.0 0.0 0 ------- null}
- -t 0.1875 -s 3 -d 0 -p ack -e 40 -c 1 -i 1 -a 1 -x {8.0 0.0 0 ------- null}
h -t 0.1875 -s 3 -d 0 -p ack -e 40 -c 1 -i 1 -a 1 -x {8.0 0.0 -1 ------- null}
r -t 0.2 -s 3 -d 0 -p ack -e 40 -c 1 -i 1 -a 1 -x {8.0 0.0 0 ------- null}
+ -t 0.2 -s 0 -d 3 -p tcp -e 140 -c 1 -i 2 -a 1 -x {0.0 8.0 1 ------- null}
- -t 0.2 -s 0 -d 3 -p tcp -e 140 -c 1 -i 2 -a 1 -x {0.0 8.0 1 ------- null}
h -t 0.2 -s 0 -d 3 -p tcp -e 140 -c 1 -i 2 -a 1 -x {0.0 8.0 -1 ------- null}
+ -t 0.2 -s 0 -d 3 -p tcp -e 140 -c 1 -i 3 -a 1 -x {0.0 8.0 2 ------- null}
- -t 0.20875 -s 0 -d 3 -p tcp -e 140 -c 1 -i 3 -a 1 -x {0.0 8.0 2 ------- null}
h -t 0.20875 -s 0 -d 3 -p tcp -e 140 -c 1 -i 3 -a 1 -x {0.0 8.0 -1 ------- null}
r -t 0.21875 -s 0 -d 3 -p tcp -e 140 -c 1 -i 2 -a 1 -x {0.0 8.0 1 ------- null}
+ -t 0.21875 -s 3 -d 4 -p tcp -e 140 -c 1 -i 2 -a 1 -x {0.0 8.0 1 ------- null}
- -t 0.21875 -s 3 -d 4 -p tcp -e 140 -c 1 -i 2 -a 1 -x {0.0 8.0 1 ------- null}
h -t 0.21875 -s 3 -d 4 -p tcp -e 140 -c 1 -i 2 -a 1 -x {0.0 8.0 -1 ------- null}
r -t 0.2275 -s 0 -d 3 -p tcp -e 140 -c 1 -i 3 -a 1 -x {0.0 8.0 2 ------- null}
+ -t 0.2275 -s 3 -d 4 -p tcp -e 140 -c 1 -i 3 -a 1 -x {0.0 8.0 2 ------- null}
- -t 0.2275 -s 3 -d 4 -p tcp -e 140 -c 1 -i 3 -a 1 -x {0.0 8.0 2 ------- null}
h -t 0.2275 -s 3 -d 4 -p tcp -e 140 -c 1 -i 3 -a 1 -x {0.0 8.0 -1 ------- null}
+ -t 0.229623587763386 -s 1 -d 3 -p exp -e 100 -c 2 -i 4 -a 2 -x {1.0 10.0 0 ------- null}
- -t 0.229623587763386 -s 1 -d 3 -p exp -e 100 -c 2 -i 4 -a 2 -x {1.0 10.0 0 ------- null}
h -t 0.229623587763386 -s 1 -d 3 -p exp -e 100 -c 2 -i 4 -a 2 -x {1.0 10.0 -1 ------- null}
+ -t 0.234956921096719 -s 1 -d 3 -p exp -e 100 -c 2 -i 5 -a 2 -x {1.0 10.0 1 ------- null}
- -t 0.235873587763386 -s 1 -d 3 -p exp -e 100 -c 2 -i 5 -a 2 -x {1.0 10.0 1 ------- null}
h -t 0.235873587763386 -s 1 -d 3 -p exp -e 100 -c 2 -i 5 -a 2 -x {1.0 10.0 -1 ------- null}
r -t 0.2375 -s 3 -d 4 -p tcp -e 140 -c 1 -i 2 -a 1 -x {0.0 8.0 1 ------- null}
+ -t 0.2375 -s 4 -d 5 -p tcp -e 140 -c 1 -i 2 -a 1 -x {0.0 8.0 1 ------- null}
- -t 0.2375 -s 4 -d 5 -p tcp -e 140 -c 1 -i 2 -a 1 -x {0.0 8.0 1 ------- null}
h -t 0.2375 -s 4 -d 5 -p tcp -e 140 -c 1 -i 2 -a 1 -x {0.0 8.0 -1 ------- null}
+ -t 0.240290254430052 -s 1 -d 3 -p exp -e 100 -c 2 -i 6 -a 2 -x {1.0 10.0 2 ------- null}
- -t 0.242123587763386 -s 1 -d 3 -p exp -e 100 -c 2 -i 6 -a 2 -x {1.0 10.0 2 ------- null}
h -t 0.242123587763386 -s 1 -d 3 -p exp -e 100 -c 2 -i 6 -a 2 -x {1.0 10.0 -1 ------- null}
+ -t 0.245623587763386 -s 1 -d 3 -p exp -e 100 -c 2 -i 7 -a 2 -x {1.0 10.0 3 ------- null}
r -t 0.245873587763386 -s 1 -d 3 -p exp -e 100 -c 2 -i 4 -a 2 -x {1.0 10.0 0 ------- null}
+ -t 0.245873587763386 -s 3 -d 6 -p exp -e 100 -c 2 -i 4 -a 2 -x {1.0 10.0 0 ------- null}
- -t 0.245873587763386 -s 3 -d 6 -p exp -e 100 -c 2 -i 4 -a 2 -x {1.0 10.0 0 ------- null}
h -t 0.245873587763386 -s 3 -d 6 -p exp -e 100 -c 2 -i 4 -a 2 -x {1.0 10.0 -1 ------- null}
r -t 0.24625 -s 3 -d 4 -p tcp -e 140 -c 1 -i 3 -a 1 -x {0.0 8.0 2 ------- null}
+ -t 0.24625 -s 4 -d 5 -p tcp -e 140 -c 1 -i 3 -a 1 -x {0.0 8.0 2 ------- null}
- -t 0.24625 -s 4 -d 5 -p tcp -e 140 -c 1 -i 3 -a 1 -x {0.0 8.0 2 ------- null}
h -t 0.24625 -s 4 -d 5 -p tcp -e 140 -c 1 -i 3 -a 1 -x {0.0 8.0 -1 ------- null}
- -t 0.248373587763386 -s 1 -d 3 -p exp -e 100 -c 2 -i 7 -a 2 -x {1.0 10.0 3 ------- null}
h -t 0.248373587763386 -s 1 -d 3 -p exp -e 100 -c 2 -i 7 -a 2 -x {1.0 10.0 -1 ------- null}
+ -t 0.250956921096719 -s 1 -d 3 -p exp -e 100 -c 2 -i 8 -a 2 -x {1.0 10.0 4 ------- null}
r -t 0.252123587763386 -s 1 -d 3 -p exp -e 100 -c 2 -i 5 -a 2 -x {1.0 10.0 1 ------- null}
+ -t 0.252123587763386 -s 3 -d 6 -p exp -e 100 -c 2 -i 5 -a 2 -x {1.0 10.0 1 ------- null}
- -t 0.252123587763386 -s 3 -d 6 -p exp -e 100 -c 2 -i 5 -a 2 -x {1.0 10.0 1 ------- null}
h -t 0.252123587763386 -s 3 -d 6 -p exp -e 100 -c 2 -i 5 -a 2 -x {1.0 10.0 -1 ------- null}
- -t 0.254623587763386 -s 1 -d 3 -p exp -e 100 -c 2 -i 8 -a 2 -x {1.0 10.0 4 ------- null}
h -t 0.254623587763386 -s 1 -d 3 -p exp -e 100 -c 2 -i 8 -a 2 -x {1.0 10.0 -1 ------- null}
r -t 0.25625 -s 4 -d 5 -p tcp -e 140 -c 1 -i 2 -a 1 -x {0.0 8.0 1 ------- null}
+ -t 0.25625 -s 5 -d 8 -p tcp -e 140 -c 1 -i 2 -a 1 -x {0.0 8.0 1 ------- null}
- -t 0.25625 -s 5 -d 8 -p tcp -e 140 -c 1 -i 2 -a 1 -x {0.0 8.0 1 ------- null}
h -t 0.25625 -s 5 -d 8 -p tcp -e 140 -c 1 -i 2 -a 1 -x {0.0 8.0 -1 ------- null}
+ -t 0.256290254430052 -s 1 -d 3 -p exp -e 100 -c 2 -i 9 -a 2 -x {1.0 10.0 5 ------- null}
r -t 0.258373587763386 -s 1 -d 3 -p exp -e 100 -c 2 -i 6 -a 2 -x {1.0 10.0 2 ------- null}
+ -t 0.258373587763386 -s 3 -d 6 -p exp -e 100 -c 2 -i 6 -a 2 -x {1.0 10.0 2 ------- null}
- -t 0.258373587763386 -s 3 -d 6 -p exp -e 100 -c 2 -i 6 -a 2 -x {1.0 10.0 2 ------- null}
h -t 0.258373587763386 -s 3 -d 6 -p exp -e 100 -c 2 -i 6 -a 2 -x {1.0 10.0 -1 ------- null}
- -t 0.260873587763386 -s 1 -d 3 -p exp -e 100 -c 2 -i 9 -a 2 -x {1.0 10.0 5 ------- null}
h -t 0.260873587763386 -s 1 -d 3 -p exp -e 100 -c 2 -i 9 -a 2 -x {1.0 10.0 -1 ------- null}
+ -t 0.261623587763386 -s 1 -d 3 -p exp -e 100 -c 2 -i 10 -a 2 -x {1.0 10.0 6 ------- null}
r -t 0.262123587763386 -s 3 -d 6 -p exp -e 100 -c 2 -i 4 -a 2 -x {1.0 10.0 0 ------- null}
+ -t 0.262123587763386 -s 6 -d 7 -p exp -e 100 -c 2 -i 4 -a 2 -x {1.0 10.0 0 ------- null}
- -t 0.262123587763386 -s 6 -d 7 -p exp -e 100 -c 2 -i 4 -a 2 -x {1.0 10.0 0 ------- null}
h -t 0.262123587763386 -s 6 -d 7 -p exp -e 100 -c 2 -i 4 -a 2 -x {1.0 10.0 -1 ------- null}
r -t 0.264623587763386 -s 1 -d 3 -p exp -e 100 -c 2 -i 7 -a 2 -x {1.0 10.0 3 ------- null}
+ -t 0.264623587763386 -s 3 -d 6 -p exp -e 100 -c 2 -i 7 -a 2 -x {1.0 10.0 3 ------- null}
- -t 0.264623587763386 -s 3 -d 6 -p exp -e 100 -c 2 -i 7 -a 2 -x {1.0 10.0 3 ------- null}
h -t 0.264623587763386 -s 3 -d 6 -p exp -e 100 -c 2 -i 7 -a 2 -x {1.0 10.0 -1 ------- null}
r -t 0.265 -s 4 -d 5 -p tcp -e 140 -c 1 -i 3 -a 1 -x {0.0 8.0 2 ------- null}
+ -t 0.265 -s 5 -d 8 -p tcp -e 140 -c 1 -i 3 -a 1 -x {0.0 8.0 2 ------- null}
- -t 0.265 -s 5 -d 8 -p tcp -e 140 -c 1 -i 3 -a 1 -x {0.0 8.0 2 ------- null}
h -t 0.265 -s 5 -d 8 -p tcp -e 140 -c 1 -i 3 -a 1 -x {0.0 8.0 -1 ------- null}
+ -t 0.266956921096719 -s 1 -d 3 -p exp -e 100 -c 2 -i 11 -a 2 -x {1.0 10.0 7 ------- null}
- -t 0.267123587763386 -s 1 -d 3 -p exp -e 100 -c 2 -i 10 -a 2 -x {1.0 10.0 6 ------- null}
h -t 0.267123587763386 -s 1 -d 3 -p exp -e 100 -c 2 -i 10 -a 2 -x {1.0 10.0 -1 ------- null}
r -t 0.268373587763386 -s 3 -d 6 -p exp -e 100 -c 2 -i 5 -a 2 -x {1.0 10.0 1 ------- null}
+ -t 0.268373587763386 -s 6 -d 7 -p exp -e 100 -c 2 -i 5 -a 2 -x {1.0 10.0 1 ------- null}
- -t 0.268373587763386 -s 6 -d 7 -p exp -e 100 -c 2 -i 5 -a 2 -x {1.0 10.0 1 ------- null}
h -t 0.268373587763386 -s 6 -d 7 -p exp -e 100 -c 2 -i 5 -a 2 -x {1.0 10.0 -1 ------- null}
r -t 0.270873587763386 -s 1 -d 3 -p exp -e 100 -c 2 -i 8 -a 2 -x {1.0 10.0 4 ------- null}
+ -t 0.270873587763386 -s 3 -d 6 -p exp -e 100 -c 2 -i 8 -a 2 -x {1.0 10.0 4 ------- null}
- -t 0.270873587763386 -s 3 -d 6 -p exp -e 100 -c 2 -i 8 -a 2 -x {1.0 10.0 4 ------- null}
h -t 0.270873587763386 -s 3 -d 6 -p exp -e 100 -c 2 -i 8 -a 2 -x {1.0 10.0 -1 ------- null}
+ -t 0.272290254430052 -s 1 -d 3 -p exp -e 100 -c 2 -i 12 -a 2 -x {1.0 10.0 8 ------- null}
- -t 0.273373587763386 -s 1 -d 3 -p exp -e 100 -c 2 -i 11 -a 2 -x {1.0 10.0 7 ------- null}
h -t 0.273373587763386 -s 1 -d 3 -p exp -e 100 -c 2 -i 11 -a 2 -x {1.0 10.0 -1 ------- null}
r -t 0.274623587763386 -s 3 -d 6 -p exp -e 100 -c 2 -i 6 -a 2 -x {1.0 10.0 2 ------- null}
+ -t 0.274623587763386 -s 6 -d 7 -p exp -e 100 -c 2 -i 6 -a 2 -x {1.0 10.0 2 ------- null}
- -t 0.274623587763386 -s 6 -d 7 -p exp -e 100 -c 2 -i 6 -a 2 -x {1.0 10.0 2 ------- null}
h -t 0.274623587763386 -s 6 -d 7 -p exp -e 100 -c 2 -i 6 -a 2 -x {1.0 10.0 -1 ------- null}
r -t 0.275 -s 5 -d 8 -p tcp -e 140 -c 1 -i 2 -a 1 -x {0.0 8.0 1 ------- null}
+ -t 0.275 -s 8 -d 5 -p ack -e 40 -c 1 -i 13 -a 1 -x {8.0 0.0 1 ------- null}
- -t 0.275 -s 8 -d 5 -p ack -e 40 -c 1 -i 13 -a 1 -x {8.0 0.0 1 ------- null}
h -t 0.275 -s 8 -d 5 -p ack -e 40 -c 1 -i 13 -a 1 -x {8.0 0.0 -1 ------- null}
r -t 0.277123587763386 -s 1 -d 3 -p exp -e 100 -c 2 -i 9 -a 2 -x {1.0 10.0 5 ------- null}
+ -t 0.277123587763386 -s 3 -d 6 -p exp -e 100 -c 2 -i 9 -a 2 -x {1.0 10.0 5 ------- null}
- -t 0.277123587763386 -s 3 -d 6 -p exp -e 100 -c 2 -i 9 -a 2 -x {1.0 10.0 5 ------- null}
h -t 0.277123587763386 -s 3 -d 6 -p exp -e 100 -c 2 -i 9 -a 2 -x {1.0 10.0 -1 ------- null}
+ -t 0.277623587763386 -s 1 -d 3 -p exp -e 100 -c 2 -i 14 -a 2 -x {1.0 10.0 9 ------- null}
r -t 0.278373587763386 -s 6 -d 7 -p exp -e 100 -c 2 -i 4 -a 2 -x {1.0 10.0 0 ------- null}
+ -t 0.278373587763386 -s 7 -d 10 -p exp -e 100 -c 2 -i 4 -a 2 -x {1.0 10.0 0 ------- null}
- -t 0.278373587763386 -s 7 -d 10 -p exp -e 100 -c 2 -i 4 -a 2 -x {1.0 10.0 0 ------- null}
h -t 0.278373587763386 -s 7 -d 10 -p exp -e 100 -c 2 -i 4 -a 2 -x {1.0 10.0 -1 ------- null}
- -t 0.279623587763386 -s 1 -d 3 -p exp -e 100 -c 2 -i 12 -a 2 -x {1.0 10.0 8 ------- null}
h -t 0.279623587763386 -s 1 -d 3 -p exp -e 100 -c 2 -i 12 -a 2 -x {1.0 10.0 -1 ------- null}
r -t 0.280873587763386 -s 3 -d 6 -p exp -e 100 -c 2 -i 7 -a 2 -x {1.0 10.0 3 ------- null}
+ -t 0.280873587763386 -s 6 -d 7 -p exp -e 100 -c 2 -i 7 -a 2 -x {1.0 10.0 3 ------- null}
- -t 0.280873587763386 -s 6 -d 7 -p exp -e 100 -c 2 -i 7 -a 2 -x {1.0 10.0 3 ------- null}
h -t 0.280873587763386 -s 6 -d 7 -p exp -e 100 -c 2 -i 7 -a 2 -x {1.0 10.0 -1 ------- null}
+ -t 0.282956921096719 -s 1 -d 3 -p exp -e 100 -c 2 -i 15 -a 2 -x {1.0 10.0 10 ------- null}
r -t 0.283373587763386 -s 1 -d 3 -p exp -e 100 -c 2 -i 10 -a 2 -x {1.0 10.0 6 ------- null}
+ -t 0.283373587763386 -s 3 -d 6 -p exp -e 100 -c 2 -i 10 -a 2 -x {1.0 10.0 6 ------- null}
- -t 0.283373587763386 -s 3 -d 6 -p exp -e 100 -c 2 -i 10 -a 2 -x {1.0 10.0 6 ------- null}
h -t 0.283373587763386 -s 3 -d 6 -p exp -e 100 -c 2 -i 10 -a 2 -x {1.0 10.0 -1 ------- null}
r -t 0.28375 -s 5 -d 8 -p tcp -e 140 -c 1 -i 3 -a 1 -x {0.0 8.0 2 ------- null}
+ -t 0.28375 -s 8 -d 5 -p ack -e 40 -c 1 -i 16 -a 1 -x {8.0 0.0 2 ------- null}
- -t 0.28375 -s 8 -d 5 -p ack -e 40 -c 1 -i 16 -a 1 -x {8.0 0.0 2 ------- null}
h -t 0.28375 -s 8 -d 5 -p ack -e 40 -c 1 -i 16 -a 1 -x {8.0 0.0 -1 ------- null}
r -t 0.284623587763386 -s 6 -d 7 -p exp -e 100 -c 2 -i 5 -a 2 -x {1.0 10.0 1 ------- null}
+ -t 0.284623587763386 -s 7 -d 10 -p exp -e 100 -c 2 -i 5 -a 2 -x {1.0 10.0 1 ------- null}
- -t 0.284623587763386 -s 7 -d 10 -p exp -e 100 -c 2 -i 5 -a 2 -x {1.0 10.0 1 ------- null}
h -t 0.284623587763386 -s 7 -d 10 -p exp -e 100 -c 2 -i 5 -a 2 -x {1.0 10.0 -1 ------- null}
- -t 0.285873587763386 -s 1 -d 3 -p exp -e 100 -c 2 -i 14 -a 2 -x {1.0 10.0 9 ------- null}
h -t 0.285873587763386 -s 1 -d 3 -p exp -e 100 -c 2 -i 14 -a 2 -x {1.0 10.0 -1 ------- null}
r -t 0.287123587763386 -s 3 -d 6 -p exp -e 100 -c 2 -i 8 -a 2 -x {1.0 10.0 4 ------- null}
+ -t 0.287123587763386 -s 6 -d 7 -p exp -e 100 -c 2 -i 8 -a 2 -x {1.0 10.0 4 ------- null}
- -t 0.287123587763386 -s 6 -d 7 -p exp -e 100 -c 2 -i 8 -a 2 -x {1.0 10.0 4 ------- null}
h -t 0.287123587763386 -s 6 -d 7 -p exp -e 100 -c 2 -i 8 -a 2 -x {1.0 10.0 -1 ------- null}
r -t 0.2875 -s 8 -d 5 -p ack -e 40 -c 1 -i 13 -a 1 -x {8.0 0.0 1 ------- null}
+ -t 0.2875 -s 5 -d 4 -p ack -e 40 -c 1 -i 13 -a 1 -x {8.0 0.0 1 ------- null}
- -t 0.2875 -s 5 -d 4 -p ack -e 40 -c 1 -i 13 -a 1 -x {8.0 0.0 1 ------- null}
h -t 0.2875 -s 5 -d 4 -p ack -e 40 -c 1 -i 13 -a 1 -x {8.0 0.0 -1 ------- null}
+ -t 0.288290254430053 -s 1 -d 3 -p exp -e 100 -c 2 -i 17 -a 2 -x {1.0 10.0 11 ------- null}
r -t 0.289623587763386 -s 1 -d 3 -p exp -e 100 -c 2 -i 11 -a 2 -x {1.0 10.0 7 ------- null}
+ -t 0.289623587763386 -s 3 -d 6 -p exp -e 100 -c 2 -i 11 -a 2 -x {1.0 10.0 7 ------- null}
- -t 0.289623587763386 -s 3 -d 6 -p exp -e 100 -c 2 -i 11 -a 2 -x {1.0 10.0 7 ------- null}
h -t 0.289623587763386 -s 3 -d 6 -p exp -e 100 -c 2 -i 11 -a 2 -x {1.0 10.0 -1 ------- null}
r -t 0.290873587763386 -s 6 -d 7 -p exp -e 100 -c 2 -i 6 -a 2 -x {1.0 10.0 2 ------- null}
+ -t 0.290873587763386 -s 7 -d 10 -p exp -e 100 -c 2 -i 6 -a 2 -x {1.0 10.0 2 ------- null}
- -t 0.290873587763386 -s 7 -d 10 -p exp -e 100 -c 2 -i 6 -a 2 -x {1.0 10.0 2 ------- null}
h -t 0.290873587763386 -s 7 -d 10 -p exp -e 100 -c 2 -i 6 -a 2 -x {1.0 10.0 -1 ------- null}
- -t 0.292123587763386 -s 1 -d 3 -p exp -e 100 -c 2 -i 15 -a 2 -x {1.0 10.0 10 ------- null}
h -t 0.292123587763386 -s 1 -d 3 -p exp -e 100 -c 2 -i 15 -a 2 -x {1.0 10.0 -1 ------- null}
r -t 0.293373587763386 -s 3 -d 6 -p exp -e 100 -c 2 -i 9 -a 2 -x {1.0 10.0 5 ------- null}
+ -t 0.293373587763386 -s 6 -d 7 -p exp -e 100 -c 2 -i 9 -a 2 -x {1.0 10.0 5 ------- null}
- -t 0.293373587763386 -s 6 -d 7 -p exp -e 100 -c 2 -i 9 -a 2 -x {1.0 10.0 5 ------- null}
h -t 0.293373587763386 -s 6 -d 7 -p exp -e 100 -c 2 -i 9 -a 2 -x {1.0 10.0 -1 ------- null}
+ -t 0.293623587763386 -s 1 -d 3 -p exp -e 100 -c 2 -i 18 -a 2 -x {1.0 10.0 12 ------- null}
r -t 0.294623587763386 -s 7 -d 10 -p exp -e 100 -c 2 -i 4 -a 2 -x {1.0 10.0 0 ------- null}
r -t 0.295873587763386 -s 1 -d 3 -p exp -e 100 -c 2 -i 12 -a 2 -x {1.0 10.0 8 ------- null}
+ -t 0.295873587763386 -s 3 -d 6 -p exp -e 100 -c 2 -i 12 -a 2 -x {1.0 10.0 8 ------- null}
- -t 0.295873587763386 -s 3 -d 6 -p exp -e 100 -c 2 -i 12 -a 2 -x {1.0 10.0 8 ------- null}
h -t 0.295873587763386 -s 3 -d 6 -p exp -e 100 -c 2 -i 12 -a 2 -x {1.0 10.0 -1 ------- null}
r -t 0.29625 -s 8 -d 5 -p ack -e 40 -c 1 -i 16 -a 1 -x {8.0 0.0 2 ------- null}
+ -t 0.29625 -s 5 -d 4 -p ack -e 40 -c 1 -i 16 -a 1 -x {8.0 0.0 2 ------- null}
- -t 0.29625 -s 5 -d 4 -p ack -e 40 -c 1 -i 16 -a 1 -x {8.0 0.0 2 ------- null}
h -t 0.29625 -s 5 -d 4 -p ack -e 40 -c 1 -i 16 -a 1 -x {8.0 0.0 -1 ------- null}
r -t 0.297123587763386 -s 6 -d 7 -p exp -e 100 -c 2 -i 7 -a 2 -x {1.0 10.0 3 ------- null}
+ -t 0.297123587763386 -s 7 -d 10 -p exp -e 100 -c 2 -i 7 -a 2 -x {1.0 10.0 3 ------- null}
- -t 0.297123587763386 -s 7 -d 10 -p exp -e 100 -c 2 -i 7 -a 2 -x {1.0 10.0 3 ------- null}
h -t 0.297123587763386 -s 7 -d 10 -p exp -e 100 -c 2 -i 7 -a 2 -x {1.0 10.0 -1 ------- null}
- -t 0.298373587763386 -s 1 -d 3 -p exp -e 100 -c 2 -i 17 -a 2 -x {1.0 10.0 11 ------- null}
h -t 0.298373587763386 -s 1 -d 3 -p exp -e 100 -c 2 -i 17 -a 2 -x {1.0 10.0 -1 ------- null}
+ -t 0.298956921096719 -s 1 -d 3 -p exp -e 100 -c 2 -i 19 -a 2 -x {1.0 10.0 13 ------- null}
r -t 0.299623587763386 -s 3 -d 6 -p exp -e 100 -c 2 -i 10 -a 2 -x {1.0 10.0 6 ------- null}
+ -t 0.299623587763386 -s 6 -d 7 -p exp -e 100 -c 2 -i 10 -a 2 -x {1.0 10.0 6 ------- null}
- -t 0.299623587763386 -s 6 -d 7 -p exp -e 100 -c 2 -i 10 -a 2 -x {1.0 10.0 6 ------- null}
h -t 0.299623587763386 -s 6 -d 7 -p exp -e 100 -c 2 -i 10 -a 2 -x {1.0 10.0 -1 ------- null}
r -t 0.3 -s 5 -d 4 -p ack -e 40 -c 1 -i 13 -a 1 -x {8.0 0.0 1 ------- null}
+ -t 0.3 -s 4 -d 3 -p ack -e 40 -c 1 -i 13 -a 1 -x {8.0 0.0 1 ------- null}
- -t 0.3 -s 4 -d 3 -p ack -e 40 -c 1 -i 13 -a 1 -x {8.0 0.0 1 ------- null}
h -t 0.3 -s 4 -d 3 -p ack -e 40 -c 1 -i 13 -a 1 -x {8.0 0.0 -1 ------- null}
r -t 0.300873587763386 -s 7 -d 10 -p exp -e 100 -c 2 -i 5 -a 2 -x {1.0 10.0 1 ------- null}
r -t 0.302123587763386 -s 1 -d 3 -p exp -e 100 -c 2 -i 14 -a 2 -x {1.0 10.0 9 ------- null}
+ -t 0.302123587763386 -s 3 -d 6 -p exp -e 100 -c 2 -i 14 -a 2 -x {1.0 10.0 9 ------- null}
- -t 0.302123587763386 -s 3 -d 6 -p exp -e 100 -c 2 -i 14 -a 2 -x {1.0 10.0 9 ------- null}
h -t 0.302123587763386 -s 3 -d 6 -p exp -e 100 -c 2 -i 14 -a 2 -x {1.0 10.0 -1 ------- null}
r -t 0.303373587763386 -s 6 -d 7 -p exp -e 100 -c 2 -i 8 -a 2 -x {1.0 10.0 4 ------- null}
+ -t 0.303373587763386 -s 7 -d 10 -p exp -e 100 -c 2 -i 8 -a 2 -x {1.0 10.0 4 ------- null}
- -t 0.303373587763386 -s 7 -d 10 -p exp -e 100 -c 2 -i 8 -a 2 -x {1.0 10.0 4 ------- null}
h -t 0.303373587763386 -s 7 -d 10 -p exp -e 100 -c 2 -i 8 -a 2 -x {1.0 10.0 -1 ------- null}
+ -t 0.304290254430053 -s 1 -d 3 -p exp -e 100 -c 2 -i 20 -a 2 -x {1.0 10.0 14 ------- null}
- -t 0.304623587763386 -s 1 -d 3 -p exp -e 100 -c 2 -i 18 -a 2 -x {1.0 10.0 12 ------- null}
h -t 0.304623587763386 -s 1 -d 3 -p exp -e 100 -c 2 -i 18 -a 2 -x {1.0 10.0 -1 ------- null}
r -t 0.305873587763386 -s 3 -d 6 -p exp -e 100 -c 2 -i 11 -a 2 -x {1.0 10.0 7 ------- null}
+ -t 0.305873587763386 -s 6 -d 7 -p exp -e 100 -c 2 -i 11 -a 2 -x {1.0 10.0 7 ------- null}
- -t 0.305873587763386 -s 6 -d 7 -p exp -e 100 -c 2 -i 11 -a 2 -x {1.0 10.0 7 ------- null}
h -t 0.305873587763386 -s 6 -d 7 -p exp -e 100 -c 2 -i 11 -a 2 -x {1.0 10.0 -1 ------- null}
r -t 0.307123587763386 -s 7 -d 10 -p exp -e 100 -c 2 -i 6 -a 2 -x {1.0 10.0 2 ------- null}
r -t 0.308373587763386 -s 1 -d 3 -p exp -e 100 -c 2 -i 15 -a 2 -x {1.0 10.0 10 ------- null}
+ -t 0.308373587763386 -s 3 -d 6 -p exp -e 100 -c 2 -i 15 -a 2 -x {1.0 10.0 10 ------- null}
- -t 0.308373587763386 -s 3 -d 6 -p exp -e 100 -c 2 -i 15 -a 2 -x {1.0 10.0 10 ------- null}
h -t 0.308373587763386 -s 3 -d 6 -p exp -e 100 -c 2 -i 15 -a 2 -x {1.0 10.0 -1 ------- null}
r -t 0.30875 -s 5 -d 4 -p ack -e 40 -c 1 -i 16 -a 1 -x {8.0 0.0 2 ------- null}
+ -t 0.30875 -s 4 -d 3 -p ack -e 40 -c 1 -i 16 -a 1 -x {8.0 0.0 2 ------- null}
- -t 0.30875 -s 4 -d 3 -p ack -e 40 -c 1 -i 16 -a 1 -x {8.0 0.0 2 ------- null}
h -t 0.30875 -s 4 -d 3 -p ack -e 40 -c 1 -i 16 -a 1 -x {8.0 0.0 -1 ------- null}
r -t 0.309623587763386 -s 6 -d 7 -p exp -e 100 -c 2 -i 9 -a 2 -x {1.0 10.0 5 ------- null}
+ -t 0.309623587763386 -s 7 -d 10 -p exp -e 100 -c 2 -i 9 -a 2 -x {1.0 10.0 5 ------- null}
- -t 0.309623587763386 -s 7 -d 10 -p exp -e 100 -c 2 -i 9 -a 2 -x {1.0 10.0 5 ------- null}
h -t 0.309623587763386 -s 7 -d 10 -p exp -e 100 -c 2 -i 9 -a 2 -x {1.0 10.0 -1 ------- null}
+ -t 0.309623587763386 -s 1 -d 3 -p exp -e 100 -c 2 -i 21 -a 2 -x {1.0 10.0 15 ------- null}
- -t 0.310873587763386 -s 1 -d 3 -p exp -e 100 -c 2 -i 19 -a 2 -x {1.0 10.0 13 ------- null}
h -t 0.310873587763386 -s 1 -d 3 -p exp -e 100 -c 2 -i 19 -a 2 -x {1.0 10.0 -1 ------- null}
r -t 0.312123587763386 -s 3 -d 6 -p exp -e 100 -c 2 -i 12 -a 2 -x {1.0 10.0 8 ------- null}
+ -t 0.312123587763386 -s 6 -d 7 -p exp -e 100 -c 2 -i 12 -a 2 -x {1.0 10.0 8 ------- null}
- -t 0.312123587763386 -s 6 -d 7 -p exp -e 100 -c 2 -i 12 -a 2 -x {1.0 10.0 8 ------- null}
h -t 0.312123587763386 -s 6 -d 7 -p exp -e 100 -c 2 -i 12 -a 2 -x {1.0 10.0 -1 ------- null}
r -t 0.3125 -s 4 -d 3 -p ack -e 40 -c 1 -i 13 -a 1 -x {8.0 0.0 1 ------- null}
+ -t 0.3125 -s 3 -d 0 -p ack -e 40 -c 1 -i 13 -a 1 -x {8.0 0.0 1 ------- null}
- -t 0.3125 -s 3 -d 0 -p ack -e 40 -c 1 -i 13 -a 1 -x {8.0 0.0 1 ------- null}
h -t 0.3125 -s 3 -d 0 -p ack -e 40 -c 1 -i 13 -a 1 -x {8.0 0.0 -1 ------- null}
r -t 0.313373587763386 -s 7 -d 10 -p exp -e 100 -c 2 -i 7 -a 2 -x {1.0 10.0 3 ------- null}
r -t 0.314623587763386 -s 1 -d 3 -p exp -e 100 -c 2 -i 17 -a 2 -x {1.0 10.0 11 ------- null}
+ -t 0.314623587763386 -s 3 -d 6 -p exp -e 100 -c 2 -i 17 -a 2 -x {1.0 10.0 11 ------- null}
- -t 0.314623587763386 -s 3 -d 6 -p exp -e 100 -c 2 -i 17 -a 2 -x {1.0 10.0 11 ------- null}
h -t 0.314623587763386 -s 3 -d 6 -p exp -e 100 -c 2 -i 17 -a 2 -x {1.0 10.0 -1 ------- null}
r -t 0.315873587763386 -s 6 -d 7 -p exp -e 100 -c 2 -i 10 -a 2 -x {1.0 10.0 6 ------- null}
+ -t 0.315873587763386 -s 7 -d 10 -p exp -e 100 -c 2 -i 10 -a 2 -x {1.0 10.0 6 ------- null}
- -t 0.315873587763386 -s 7 -d 10 -p exp -e 100 -c 2 -i 10 -a 2 -x {1.0 10.0 6 ------- null}
h -t 0.315873587763386 -s 7 -d 10 -p exp -e 100 -c 2 -i 10 -a 2 -x {1.0 10.0 -1 ------- null}
- -t 0.317123587763386 -s 1 -d 3 -p exp -e 100 -c 2 -i 20 -a 2 -x {1.0 10.0 14 ------- null}
h -t 0.317123587763386 -s 1 -d 3 -p exp -e 100 -c 2 -i 20 -a 2 -x {1.0 10.0 -1 ------- null}
+ -t 0.317198919017307 -s 1 -d 3 -p exp -e 100 -c 2 -i 22 -a 2 -x {1.0 10.0 16 ------- null}
r -t 0.318373587763386 -s 3 -d 6 -p exp -e 100 -c 2 -i 14 -a 2 -x {1.0 10.0 9 ------- null}
+ -t 0.318373587763386 -s 6 -d 7 -p exp -e 100 -c 2 -i 14 -a 2 -x {1.0 10.0 9 ------- null}
- -t 0.318373587763386 -s 6 -d 7 -p exp -e 100 -c 2 -i 14 -a 2 -x {1.0 10.0 9 ------- null}
h -t 0.318373587763386 -s 6 -d 7 -p exp -e 100 -c 2 -i 14 -a 2 -x {1.0 10.0 -1 ------- null}
r -t 0.319623587763386 -s 7 -d 10 -p exp -e 100 -c 2 -i 8 -a 2 -x {1.0 10.0 4 ------- null}
r -t 0.320873587763386 -s 1 -d 3 -p exp -e 100 -c 2 -i 18 -a 2 -x {1.0 10.0 12 ------- null}
+ -t 0.320873587763386 -s 3 -d 6 -p exp -e 100 -c 2 -i 18 -a 2 -x {1.0 10.0 12 ------- null}
- -t 0.320873587763386 -s 3 -d 6 -p exp -e 100 -c 2 -i 18 -a 2 -x {1.0 10.0 12 ------- null}
h -t 0.320873587763386 -s 3 -d 6 -p exp -e 100 -c 2 -i 18 -a 2 -x {1.0 10.0 -1 ------- null}
r -t 0.32125 -s 4 -d 3 -p ack -e 40 -c 1 -i 16 -a 1 -x {8.0 0.0 2 ------- null}
+ -t 0.32125 -s 3 -d 0 -p ack -e 40 -c 1 -i 16 -a 1 -x {8.0 0.0 2 ------- null}
- -t 0.32125 -s 3 -d 0 -p ack -e 40 -c 1 -i 16 -a 1 -x {8.0 0.0 2 ------- null}
h -t 0.32125 -s 3 -d 0 -p ack -e 40 -c 1 -i 16 -a 1 -x {8.0 0.0 -1 ------- null}
r -t 0.322123587763386 -s 6 -d 7 -p exp -e 100 -c 2 -i 11 -a 2 -x {1.0 10.0 7 ------- null}
+ -t 0.322123587763386 -s 7 -d 10 -p exp -e 100 -c 2 -i 11 -a 2 -x {1.0 10.0 7 ------- null}
- -t 0.322123587763386 -s 7 -d 10 -p exp -e 100 -c 2 -i 11 -a 2 -x {1.0 10.0 7 ------- null}
h -t 0.322123587763386 -s 7 -d 10 -p exp -e 100 -c 2 -i 11 -a 2 -x {1.0 10.0 -1 ------- null}
+ -t 0.32253225235064 -s 1 -d 3 -p exp -e 100 -c 2 -i 23 -a 2 -x {1.0 10.0 17 ------- null}
- -t 0.323373587763385 -s 1 -d 3 -p exp -e 100 -c 2 -i 21 -a 2 -x {1.0 10.0 15 ------- null}
h -t 0.323373587763385 -s 1 -d 3 -p exp -e 100 -c 2 -i 21 -a 2 -x {1.0 10.0 -1 ------- null}
r -t 0.324623587763386 -s 3 -d 6 -p exp -e 100 -c 2 -i 15 -a 2 -x {1.0 10.0 10 ------- null}
+ -t 0.324623587763386 -s 6 -d 7 -p exp -e 100 -c 2 -i 15 -a 2 -x {1.0 10.0 10 ------- null}
- -t 0.324623587763386 -s 6 -d 7 -p exp -e 100 -c 2 -i 15 -a 2 -x {1.0 10.0 10 ------- null}
h -t 0.324623587763386 -s 6 -d 7 -p exp -e 100 -c 2 -i 15 -a 2 -x {1.0 10.0 -1 ------- null}
r -t 0.325 -s 3 -d 0 -p ack -e 40 -c 1 -i 13 -a 1 -x {8.0 0.0 1 ------- null}
+ -t 0.325 -s 0 -d 3 -p tcp -e 140 -c 1 -i 24 -a 1 -x {0.0 8.0 3 ------- null}
- -t 0.325 -s 0 -d 3 -p tcp -e 140 -c 1 -i 24 -a 1 -x {0.0 8.0 3 ------- null}
h -t 0.325 -s 0 -d 3 -p tcp -e 140 -c 1 -i 24 -a 1 -x {0.0 8.0 -1 ------- null}
+ -t 0.325 -s 0 -d 3 -p tcp -e 140 -c 1 -i 25 -a 1 -x {0.0 8.0 4 ------- null}
r -t 0.325873587763386 -s 7 -d 10 -p exp -e 100 -c 2 -i 9 -a 2 -x {1.0 10.0 5 ------- null}
r -t 0.327123587763386 -s 1 -d 3 -p exp -e 100 -c 2 -i 19 -a 2 -x {1.0 10.0 13 ------- null}
+ -t 0.327123587763386 -s 3 -d 6 -p exp -e 100 -c 2 -i 19 -a 2 -x {1.0 10.0 13 ------- null}
- -t 0.327123587763386 -s 3 -d 6 -p exp -e 100 -c 2 -i 19 -a 2 -x {1.0 10.0 13 ------- null}
h -t 0.327123587763386 -s 3 -d 6 -p exp -e 100 -c 2 -i 19 -a 2 -x {1.0 10.0 -1 ------- null}
+ -t 0.327865585683974 -s 1 -d 3 -p exp -e 100 -c 2 -i 26 -a 2 -x {1.0 10.0 18 ------- null}
r -t 0.328373587763386 -s 6 -d 7 -p exp -e 100 -c 2 -i 12 -a 2 -x {1.0 10.0 8 ------- null}
+ -t 0.328373587763386 -s 7 -d 10 -p exp -e 100 -c 2 -i 12 -a 2 -x {1.0 10.0 8 ------- null}
- -t 0.328373587763386 -s 7 -d 10 -p exp -e 100 -c 2 -i 12 -a 2 -x {1.0 10.0 8 ------- null}
h -t 0.328373587763386 -s 7 -d 10 -p exp -e 100 -c 2 -i 12 -a 2 -x {1.0 10.0 -1 ------- null}
- -t 0.329623587763385 -s 1 -d 3 -p exp -e 100 -c 2 -i 22 -a 2 -x {1.0 10.0 16 ------- null}
h -t 0.329623587763385 -s 1 -d 3 -p exp -e 100 -c 2 -i 22 -a 2 -x {1.0 10.0 -1 ------- null}
r -t 0.330873587763386 -s 3 -d 6 -p exp -e 100 -c 2 -i 17 -a 2 -x {1.0 10.0 11 ------- null}
+ -t 0.330873587763386 -s 6 -d 7 -p exp -e 100 -c 2 -i 17 -a 2 -x {1.0 10.0 11 ------- null}
- -t 0.330873587763386 -s 6 -d 7 -p exp -e 100 -c 2 -i 17 -a 2 -x {1.0 10.0 11 ------- null}
h -t 0.330873587763386 -s 6 -d 7 -p exp -e 100 -c 2 -i 17 -a 2 -x {1.0 10.0 -1 ------- null}
r -t 0.332123587763386 -s 7 -d 10 -p exp -e 100 -c 2 -i 10 -a 2 -x {1.0 10.0 6 ------- null}
r -t 0.333373587763385 -s 1 -d 3 -p exp -e 100 -c 2 -i 20 -a 2 -x {1.0 10.0 14 ------- null}
+ -t 0.333373587763385 -s 3 -d 6 -p exp -e 100 -c 2 -i 20 -a 2 -x {1.0 10.0 14 ------- null}
- -t 0.333373587763385 -s 3 -d 6 -p exp -e 100 -c 2 -i 20 -a 2 -x {1.0 10.0 14 ------- null}
h -t 0.333373587763385 -s 3 -d 6 -p exp -e 100 -c 2 -i 20 -a 2 -x {1.0 10.0 -1 ------- null}
- -t 0.33375 -s 0 -d 3 -p tcp -e 140 -c 1 -i 25 -a 1 -x {0.0 8.0 4 ------- null}
h -t 0.33375 -s 0 -d 3 -p tcp -e 140 -c 1 -i 25 -a 1 -x {0.0 8.0 -1 ------- null}
r -t 0.33375 -s 3 -d 0 -p ack -e 40 -c 1 -i 16 -a 1 -x {8.0 0.0 2 ------- null}
+ -t 0.33375 -s 0 -d 3 -p tcp -e 140 -c 1 -i 27 -a 1 -x {0.0 8.0 5 ------- null}
+ -t 0.33375 -s 0 -d 3 -p tcp -e 140 -c 1 -i 28 -a 1 -x {0.0 8.0 6 ------- null}
r -t 0.334623587763386 -s 6 -d 7 -p exp -e 100 -c 2 -i 14 -a 2 -x {1.0 10.0 9 ------- null}
+ -t 0.334623587763386 -s 7 -d 10 -p exp -e 100 -c 2 -i 14 -a 2 -x {1.0 10.0 9 ------- null}
- -t 0.334623587763386 -s 7 -d 10 -p exp -e 100 -c 2 -i 14 -a 2 -x {1.0 10.0 9 ------- null}
h -t 0.334623587763386 -s 7 -d 10 -p exp -e 100 -c 2 -i 14 -a 2 -x {1.0 10.0 -1 ------- null}
+ -t 0.335226495995071 -s 1 -d 3 -p exp -e 100 -c 2 -i 29 -a 2 -x {1.0 10.0 19 ------- null}
- -t 0.335873587763385 -s 1 -d 3 -p exp -e 100 -c 2 -i 23 -a 2 -x {1.0 10.0 17 ------- null}
h -t 0.335873587763385 -s 1 -d 3 -p exp -e 100 -c 2 -i 23 -a 2 -x {1.0 10.0 -1 ------- null}
r -t 0.337123587763386 -s 3 -d 6 -p exp -e 100 -c 2 -i 18 -a 2 -x {1.0 10.0 12 ------- null}
+ -t 0.337123587763386 -s 6 -d 7 -p exp -e 100 -c 2 -i 18 -a 2 -x {1.0 10.0 12 ------- null}
- -t 0.337123587763386 -s 6 -d 7 -p exp -e 100 -c 2 -i 18 -a 2 -x {1.0 10.0 12 ------- null}
h -t 0.337123587763386 -s 6 -d 7 -p exp -e 100 -c 2 -i 18 -a 2 -x {1.0 10.0 -1 ------- null}
r -t 0.338373587763386 -s 7 -d 10 -p exp -e 100 -c 2 -i 11 -a 2 -x {1.0 10.0 7 ------- null}
r -t 0.339623587763385 -s 1 -d 3 -p exp -e 100 -c 2 -i 21 -a 2 -x {1.0 10.0 15 ------- null}
+ -t 0.339623587763385 -s 3 -d 6 -p exp -e 100 -c 2 -i 21 -a 2 -x {1.0 10.0 15 ------- null}
- -t 0.339623587763385 -s 3 -d 6 -p exp -e 100 -c 2 -i 21 -a 2 -x {1.0 10.0 15 ------- null}
h -t 0.339623587763385 -s 3 -d 6 -p exp -e 100 -c 2 -i 21 -a 2 -x {1.0 10.0 -1 ------- null}
+ -t 0.340559829328404 -s 1 -d 3 -p exp -e 100 -c 2 -i 30 -a 2 -x {1.0 10.0 20 ------- null}