V -t * -v 1.0a5 -a 0
A -t * -n 1 -p 0 -o 0x7fffffff -c 30 -a 1
A -t * -h 1 -m 1073741823 -s 0
c -t * -i 1 -n Green
c -t * -i 2 -n Red
n -t * -a 8 -s 8 -S UP -v circle -c black -i black
n -t * -a 4 -s 4 -S UP -v circle -c black -i black
n -t * -a 0 -s 0 -S UP -v circle -c black -i black
n -t * -a 10 -s 10 -S UP -v circle -c black -i black
n -t * -a 9 -s 9 -S UP -v circle -c black -i black
n -t * -a 5 -s 5 -S UP -v circle -c black -i black
n -t * -a 1 -s 1 -S UP -v circle -c black -i black
n -t * -a 6 -s 6 -S UP -v circle -c black -i black
n -t * -a 2 -s 2 -S UP -v circle -c black -i black
n -t * -a 7 -s 7 -S UP -v circle -c black -i black
n -t * -a 3 -s 3 -S UP -v circle -c black -i black
l -t * -s 3 -d 0 -S UP -r 128000 -D 0.02 -c black -o left-up
l -t * -s 3 -d 1 -S UP -r 128000 -D 0.02 -c black -o left
l -t * -s 3 -d 4 -S UP -r 128000 -D 0.02 -c black -o right-up
l -t * -s 3 -d 2 -S UP -r 1000000 -D 0.10000000000000001 -c black -o left-down
l -t * -s 3 -d 6 -S UP -r 1000000 -D 0.10000000000000001 -c black -o right-down
l -t * -s 4 -d 5 -S UP -r 1000000 -D 0.10000000000000001 -c black -o right
l -t * -s 5 -d 8 -S UP -r 1000000 -D 0.10000000000000001 -c black -o right
l -t * -s 6 -d 7 -S UP -r 1000000 -D 0.10000000000000001 -c black -o right
l -t * -s 5 -d 7 -S UP -r 1000000 -D 0.10000000000000001 -c black -o down
l -t * -s 7 -d 9 -S UP -r 1000000 -D 0.10000000000000001 -c black -o right
l -t * -s 7 -d 10 -S UP -r 1000000 -D 0.10000000000000001 -c black -o down
q -t * -s 3 -d 4 -a 0.5
q -t * -s 4 -d 3 -a 0.5
+ -t 0.174720154734775 -s 0 -d 3 -p exp -e 300 -c 1 -i 0 -a 1 -x {0.0 8.0 0 ------- null}
- -t 0.174720154734775 -s 0 -d 3 -p exp -e 300 -c 1 -i 0 -a 1 -x {0.0 8.0 0 ------- null}
h -t 0.174720154734775 -s 0 -d 3 -p exp -e 300 -c 1 -i 0 -a 1 -x {0.0 8.0 -1 ------- null}
+ -t 0.190720154734775 -s 0 -d 3 -p exp -e 300 -c 1 -i 1 -a 1 -x {0.0 8.0 1 ------- null}
- -t 0.193470154734775 -s 0 -d 3 -p exp -e 300 -c 1 -i 1 -a 1 -x {0.0 8.0 1 ------- null}
h -t 0.193470154734775 -s 0 -d 3 -p exp -e 300 -c 1 -i 1 -a 1 -x {0.0 8.0 -1 ------- null}
+ -t 0.206720154734775 -s 0 -d 3 -p exp -e 300 -c 1 -i 2 -a 1 -x {0.0 8.0 2 ------- null}
- -t 0.212220154734775 -s 0 -d 3 -p exp -e 300 -c 1 -i 2 -a 1 -x {0.0 8.0 2 ------- null}
h -t 0.212220154734775 -s 0 -d 3 -p exp -e 300 -c 1 -i 2 -a 1 -x {0.0 8.0 -1 ------- null}
r -t 0.213470154734775 -s 0 -d 3 -p exp -e 300 -c 1 -i 0 -a 1 -x {0.0 8.0 0 ------- null}
+ -t 0.213470154734775 -s 3 -d 4 -p exp -e 300 -c 1 -i 0 -a 1 -x {0.0 8.0 0 ------- null}
- -t 0.213470154734775 -s 3 -d 4 -p exp -e 300 -c 1 -i 0 -a 1 -x {0.0 8.0 0 ------- null}
h -t 0.213470154734775 -s 3 -d 4 -p exp -e 300 -c 1 -i 0 -a 1 -x {0.0 8.0 -1 ------- null}
+ -t 0.222720154734775 -s 0 -d 3 -p exp -e 300 -c 1 -i 3 -a 1 -x {0.0 8.0 3 ------- null}
- -t 0.230970154734775 -s 0 -d 3 -p exp -e 300 -c 1 -i 3 -a 1 -x {0.0 8.0 3 ------- null}
h -t 0.230970154734775 -s 0 -d 3 -p exp -e 300 -c 1 -i 3 -a 1 -x {0.0 8.0 -1 ------- null}
r -t 0.232220154734775 -s 0 -d 3 -p exp -e 300 -c 1 -i 1 -a 1 -x {0.0 8.0 1 ------- null}
+ -t 0.232220154734775 -s 3 -d 4 -p exp -e 300 -c 1 -i 1 -a 1 -x {0.0 8.0 1 ------- null}
- -t 0.232220154734775 -s 3 -d 4 -p exp -e 300 -c 1 -i 1 -a 1 -x {0.0 8.0 1 ------- null}
h -t 0.232220154734775 -s 3 -d 4 -p exp -e 300 -c 1 -i 1 -a 1 -x {0.0 8.0 -1 ------- null}
+ -t 0.238720154734775 -s 0 -d 3 -p exp -e 300 -c 1 -i 4 -a 1 -x {0.0 8.0 4 ------- null}
- -t 0.249720154734775 -s 0 -d 3 -p exp -e 300 -c 1 -i 4 -a 1 -x {0.0 8.0 4 ------- null}
h -t 0.249720154734775 -s 0 -d 3 -p exp -e 300 -c 1 -i 4 -a 1 -x {0.0 8.0 -1 ------- null}
r -t 0.250970154734775 -s 0 -d 3 -p exp -e 300 -c 1 -i 2 -a 1 -x {0.0 8.0 2 ------- null}
+ -t 0.250970154734775 -s 3 -d 4 -p exp -e 300 -c 1 -i 2 -a 1 -x {0.0 8.0 2 ------- null}
- -t 0.250970154734775 -s 3 -d 4 -p exp -e 300 -c 1 -i 2 -a 1 -x {0.0 8.0 2 ------- null}
h -t 0.250970154734775 -s 3 -d 4 -p exp -e 300 -c 1 -i 2 -a 1 -x {0.0 8.0 -1 ------- null}
r -t 0.252220154734775 -s 3 -d 4 -p exp -e 300 -c 1 -i 0 -a 1 -x {0.0 8.0 0 ------- null}
+ -t 0.252220154734775 -s 4 -d 5 -p exp -e 300 -c 1 -i 0 -a 1 -x {0.0 8.0 0 ------- null}
- -t 0.252220154734775 -s 4 -d 5 -p exp -e 300 -c 1 -i 0 -a 1 -x {0.0 8.0 0 ------- null}
h -t 0.252220154734775 -s 4 -d 5 -p exp -e 300 -c 1 -i 0 -a 1 -x {0.0 8.0 -1 ------- null}
+ -t 0.254720154734775 -s 0 -d 3 -p exp -e 300 -c 1 -i 5 -a 1 -x {0.0 8.0 5 ------- null}
- -t 0.268470154734775 -s 0 -d 3 -p exp -e 300 -c 1 -i 5 -a 1 -x {0.0 8.0 5 ------- null}
h -t 0.268470154734775 -s 0 -d 3 -p exp -e 300 -c 1 -i 5 -a 1 -x {0.0 8.0 -1 ------- null}
r -t 0.269720154734775 -s 0 -d 3 -p exp -e 300 -c 1 -i 3 -a 1 -x {0.0 8.0 3 ------- null}
+ -t 0.269720154734775 -s 3 -d 4 -p exp -e 300 -c 1 -i 3 -a 1 -x {0.0 8.0 3 ------- null}
- -t 0.269720154734775 -s 3 -d 4 -p exp -e 300 -c 1 -i 3 -a 1 -x {0.0 8.0 3 ------- null}
h -t 0.269720154734775 -s 3 -d 4 -p exp -e 300 -c 1 -i 3 -a 1 -x {0.0 8.0 -1 ------- null}
+ -t 0.270720154734775 -s 0 -d 3 -p exp -e 300 -c 1 -i 6 -a 1 -x {0.0 8.0 6 ------- null}
r -t 0.270970154734775 -s 3 -d 4 -p exp -e 300 -c 1 -i 1 -a 1 -x {0.0 8.0 1 ------- null}
+ -t 0.270970154734775 -s 4 -d 5 -p exp -e 300 -c 1 -i 1 -a 1 -x {0.0 8.0 1 ------- null}
- -t 0.270970154734775 -s 4 -d 5 -p exp -e 300 -c 1 -i 1 -a 1 -x {0.0 8.0 1 ------- null}
h -t 0.270970154734775 -s 4 -d 5 -p exp -e 300 -c 1 -i 1 -a 1 -x {0.0 8.0 -1 ------- null}
+ -t 0.286720154734775 -s 0 -d 3 -p exp -e 300 -c 1 -i 7 -a 1 -x {0.0 8.0 7 ------- null}
- -t 0.287220154734775 -s 0 -d 3 -p exp -e 300 -c 1 -i 6 -a 1 -x {0.0 8.0 6 ------- null}
h -t 0.287220154734775 -s 0 -d 3 -p exp -e 300 -c 1 -i 6 -a 1 -x {0.0 8.0 -1 ------- null}
r -t 0.288470154734775 -s 0 -d 3 -p exp -e 300 -c 1 -i 4 -a 1 -x {0.0 8.0 4 ------- null}
+ -t 0.288470154734775 -s 3 -d 4 -p exp -e 300 -c 1 -i 4 -a 1 -x {0.0 8.0 4 ------- null}
- -t 0.288470154734775 -s 3 -d 4 -p exp -e 300 -c 1 -i 4 -a 1 -x {0.0 8.0 4 ------- null}
h -t 0.288470154734775 -s 3 -d 4 -p exp -e 300 -c 1 -i 4 -a 1 -x {0.0 8.0 -1 ------- null}
r -t 0.289720154734775 -s 3 -d 4 -p exp -e 300 -c 1 -i 2 -a 1 -x {0.0 8.0 2 ------- null}
+ -t 0.289720154734775 -s 4 -d 5 -p exp -e 300 -c 1 -i 2 -a 1 -x {0.0 8.0 2 ------- null}
- -t 0.289720154734775 -s 4 -d 5 -p exp -e 300 -c 1 -i 2 -a 1 -x {0.0 8.0 2 ------- null}
h -t 0.289720154734775 -s 4 -d 5 -p exp -e 300 -c 1 -i 2 -a 1 -x {0.0 8.0 -1 ------- null}
+ -t 0.302720154734775 -s 0 -d 3 -p exp -e 300 -c 1 -i 8 -a 1 -x {0.0 8.0 8 ------- null}
- -t 0.305970154734775 -s 0 -d 3 -p exp -e 300 -c 1 -i 7 -a 1 -x {0.0 8.0 7 ------- null}
h -t 0.305970154734775 -s 0 -d 3 -p exp -e 300 -c 1 -i 7 -a 1 -x {0.0 8.0 -1 ------- null}
r -t 0.307220154734775 -s 0 -d 3 -p exp -e 300 -c 1 -i 5 -a 1 -x {0.0 8.0 5 ------- null}
+ -t 0.307220154734775 -s 3 -d 4 -p exp -e 300 -c 1 -i 5 -a 1 -x {0.0 8.0 5 ------- null}
- -t 0.307220154734775 -s 3 -d 4 -p exp -e 300 -c 1 -i 5 -a 1 -x {0.0 8.0 5 ------- null}
h -t 0.307220154734775 -s 3 -d 4 -p exp -e 300 -c 1 -i 5 -a 1 -x {0.0 8.0 -1 ------- null}
r -t 0.308470154734775 -s 3 -d 4 -p exp -e 300 -c 1 -i 3 -a 1 -x {0.0 8.0 3 ------- null}
+ -t 0.308470154734775 -s 4 -d 5 -p exp -e 300 -c 1 -i 3 -a 1 -x {0.0 8.0 3 ------- null}
- -t 0.308470154734775 -s 4 -d 5 -p exp -e 300 -c 1 -i 3 -a 1 -x {0.0 8.0 3 ------- null}
h -t 0.308470154734775 -s 4 -d 5 -p exp -e 300 -c 1 -i 3 -a 1 -x {0.0 8.0 -1 ------- null}
+ -t 0.318720154734775 -s 0 -d 3 -p exp -e 300 -c 1 -i 9 -a 1 -x {0.0 8.0 9 ------- null}
- -t 0.324720154734775 -s 0 -d 3 -p exp -e 300 -c 1 -i 8 -a 1 -x {0.0 8.0 8 ------- null}
h -t 0.324720154734775 -s 0 -d 3 -p exp -e 300 -c 1 -i 8 -a 1 -x {0.0 8.0 -1 ------- null}
r -t 0.325970154734775 -s 0 -d 3 -p exp -e 300 -c 1 -i 6 -a 1 -x {0.0 8.0 6 ------- null}
+ -t 0.325970154734775 -s 3 -d 4 -p exp -e 300 -c 1 -i 6 -a 1 -x {0.0 8.0 6 ------- null}
- -t 0.325970154734775 -s 3 -d 4 -p exp -e 300 -c 1 -i 6 -a 1 -x {0.0 8.0 6 ------- null}
h -t 0.325970154734775 -s 3 -d 4 -p exp -e 300 -c 1 -i 6 -a 1 -x {0.0 8.0 -1 ------- null}
r -t 0.327220154734775 -s 3 -d 4 -p exp -e 300 -c 1 -i 4 -a 1 -x {0.0 8.0 4 ------- null}
+ -t 0.327220154734775 -s 4 -d 5 -p exp -e 300 -c 1 -i 4 -a 1 -x {0.0 8.0 4 ------- null}
- -t 0.327220154734775 -s 4 -d 5 -p exp -e 300 -c 1 -i 4 -a 1 -x {0.0 8.0 4 ------- null}
h -t 0.327220154734775 -s 4 -d 5 -p exp -e 300 -c 1 -i 4 -a 1 -x {0.0 8.0 -1 ------- null}
+ -t 0.334720154734775 -s 0 -d 3 -p exp -e 300 -c 1 -i 10 -a 1 -x {0.0 8.0 10 ------- null}
- -t 0.343470154734775 -s 0 -d 3 -p exp -e 300 -c 1 -i 9 -a 1 -x {0.0 8.0 9 ------- null}
h -t 0.343470154734775 -s 0 -d 3 -p exp -e 300 -c 1 -i 9 -a 1 -x {0.0 8.0 -1 ------- null}
r -t 0.344720154734775 -s 0 -d 3 -p exp -e 300 -c 1 -i 7 -a 1 -x {0.0 8.0 7 ------- null}
+ -t 0.344720154734775 -s 3 -d 4 -p exp -e 300 -c 1 -i 7 -a 1 -x {0.0 8.0 7 ------- null}
- -t 0.344720154734775 -s 3 -d 4 -p exp -e 300 -c 1 -i 7 -a 1 -x {0.0 8.0 7 ------- null}
h -t 0.344720154734775 -s 3 -d 4 -p exp -e 300 -c 1 -i 7 -a 1 -x {0.0 8.0 -1 ------- null}
r -t 0.345970154734775 -s 3 -d 4 -p exp -e 300 -c 1 -i 5 -a 1 -x {0.0 8.0 5 ------- null}
+ -t 0.345970154734775 -s 4 -d 5 -p exp -e 300 -c 1 -i 5 -a 1 -x {0.0 8.0 5 ------- null}
- -t 0.345970154734775 -s 4 -d 5 -p exp -e 300 -c 1 -i 5 -a 1 -x {0.0 8.0 5 ------- null}
h -t 0.345970154734775 -s 4 -d 5 -p exp -e 300 -c 1 -i 5 -a 1 -x {0.0 8.0 -1 ------- null}
+ -t 0.350720154734775 -s 0 -d 3 -p exp -e 300 -c 1 -i 11 -a 1 -x {0.0 8.0 11 ------- null}
+ -t 0.352502544300524 -s 1 -d 3 -p exp -e 300 -c 2 -i 12 -a 2 -x {1.0 8.0 0 ------- null}
- -t 0.352502544300524 -s 1 -d 3 -p exp -e 300 -c 2 -i 12 -a 2 -x {1.0 8.0 0 ------- null}
h -t 0.352502544300524 -s 1 -d 3 -p exp -e 300 -c 2 -i 12 -a 2 -x {1.0 8.0 -1 ------- null}
r -t 0.354620154734775 -s 4 -d 5 -p exp -e 300 -c 1 -i 0 -a 1 -x {0.0 8.0 0 ------- null}
+ -t 0.354620154734775 -s 5 -d 8 -p exp -e 300 -c 1 -i 0 -a 1 -x {0.0 8.0 0 ------- null}
- -t 0.354620154734775 -s 5 -d 8 -p exp -e 300 -c 1 -i 0 -a 1 -x {0.0 8.0 0 ------- null}
h -t 0.354620154734775 -s 5 -d 8 -p exp -e 300 -c 1 -i 0 -a 1 -x {0.0 8.0 -1 ------- null}
+ -t 0.362102544300524 -s 1 -d 3 -p exp -e 300 -c 2 -i 13 -a 2 -x {1.0 8.0 1 ------- null}
- -t 0.362220154734775 -s 0 -d 3 -p exp -e 300 -c 1 -i 10 -a 1 -x {0.0 8.0 10 ------- null}
h -t 0.362220154734775 -s 0 -d 3 -p exp -e 300 -c 1 -i 10 -a 1 -x {0.0 8.0 -1 ------- null}
r -t 0.363470154734775 -s 0 -d 3 -p exp -e 300 -c 1 -i 8 -a 1 -x {0.0 8.0 8 ------- null}
+ -t 0.363470154734775 -s 3 -d 4 -p exp -e 300 -c 1 -i 8 -a 1 -x {0.0 8.0 8 ------- null}
- -t 0.363470154734775 -s 3 -d 4 -p exp -e 300 -c 1 -i 8 -a 1 -x {0.0 8.0 8 ------- null}
h -t 0.363470154734775 -s 3 -d 4 -p exp -e 300 -c 1 -i 8 -a 1 -x {0.0 8.0 -1 ------- null}
r -t 0.364720154734775 -s 3 -d 4 -p exp -e 300 -c 1 -i 6 -a 1 -x {0.0 8.0 6 ------- null}
+ -t 0.364720154734775 -s 4 -d 5 -p exp -e 300 -c 1 -i 6 -a 1 -x {0.0 8.0 6 ------- null}
- -t 0.364720154734775 -s 4 -d 5 -p exp -e 300 -c 1 -i 6 -a 1 -x {0.0 8.0 6 ------- null}
h -t 0.364720154734775 -s 4 -d 5 -p exp -e 300 -c 1 -i 6 -a 1 -x {0.0 8.0 -1 ------- null}
+ -t 0.366720154734775 -s 0 -d 3 -p exp -e 300 -c 1 -i 14 -a 1 -x {0.0 8.0 12 ------- null}
- -t 0.371252544300524 -s 1 -d 3 -p exp -e 300 -c 2 -i 13 -a 2 -x {1.0 8.0 1 ------- null}
h -t 0.371252544300524 -s 1 -d 3 -p exp -e 300 -c 2 -i 13 -a 2 -x {1.0 8.0 -1 ------- null}
+ -t 0.371702544300524 -s 1 -d 3 -p exp -e 300 -c 2 -i 15 -a 2 -x {1.0 8.0 2 ------- null}
r -t 0.373370154734775 -s 4 -d 5 -p exp -e 300 -c 1 -i 1 -a 1 -x {0.0 8.0 1 ------- null}
+ -t 0.373370154734775 -s 5 -d 8 -p exp -e 300 -c 1 -i 1 -a 1 -x {0.0 8.0 1 ------- null}
- -t 0.373370154734775 -s 5 -d 8 -p exp -e 300 -c 1 -i 1 -a 1 -x {0.0 8.0 1 ------- null}
h -t 0.373370154734775 -s 5 -d 8 -p exp -e 300 -c 1 -i 1 -a 1 -x {0.0 8.0 -1 ------- null}
- -t 0.380970154734775 -s 0 -d 3 -p exp -e 300 -c 1 -i 11 -a 1 -x {0.0 8.0 11 ------- null}
h -t 0.380970154734775 -s 0 -d 3 -p exp -e 300 -c 1 -i 11 -a 1 -x {0.0 8.0 -1 ------- null}
+ -t 0.381302544300524 -s 1 -d 3 -p exp -e 300 -c 2 -i 16 -a 2 -x {1.0 8.0 3 ------- null}
r -t 0.382220154734775 -s 0 -d 3 -p exp -e 300 -c 1 -i 9 -a 1 -x {0.0 8.0 9 ------- null}
+ -t 0.382220154734775 -s 3 -d 4 -p exp -e 300 -c 1 -i 9 -a 1 -x {0.0 8.0 9 ------- null}
- -t 0.382220154734775 -s 3 -d 4 -p exp -e 300 -c 1 -i 9 -a 1 -x {0.0 8.0 9 ------- null}
h -t 0.382220154734775 -s 3 -d 4 -p exp -e 300 -c 1 -i 9 -a 1 -x {0.0 8.0 -1 ------- null}
+ -t 0.382720154734775 -s 0 -d 3 -p exp -e 300 -c 1 -i 17 -a 1 -x {0.0 8.0 13 ------- null}
r -t 0.383470154734775 -s 3 -d 4 -p exp -e 300 -c 1 -i 7 -a 1 -x {0.0 8.0 7 ------- null}
+ -t 0.383470154734775 -s 4 -d 5 -p exp -e 300 -c 1 -i 7 -a 1 -x {0.0 8.0 7 ------- null}
- -t 0.383470154734775 -s 4 -d 5 -p exp -e 300 -c 1 -i 7 -a 1 -x {0.0 8.0 7 ------- null}
h -t 0.383470154734775 -s 4 -d 5 -p exp -e 300 -c 1 -i 7 -a 1 -x {0.0 8.0 -1 ------- null}
- -t 0.390002544300524 -s 1 -d 3 -p exp -e 300 -c 2 -i 15 -a 2 -x {1.0 8.0 2 ------- null}
h -t 0.390002544300524 -s 1 -d 3 -p exp -e 300 -c 2 -i 15 -a 2 -x {1.0 8.0 -1 ------- null}
+ -t 0.390902544300524 -s 1 -d 3 -p exp -e 300 -c 2 -i 18 -a 2 -x {1.0 8.0 4 ------- null}
r -t 0.391252544300524 -s 1 -d 3 -p exp -e 300 -c 2 -i 12 -a 2 -x {1.0 8.0 0 ------- null}
+ -t 0.391252544300524 -s 3 -d 4 -p exp -e 300 -c 2 -i 12 -a 2 -x {1.0 8.0 0 ------- null}
r -t 0.392120154734775 -s 4 -d 5 -p exp -e 300 -c 1 -i 2 -a 1 -x {0.0 8.0 2 ------- null}
+ -t 0.392120154734775 -s 5 -d 8 -p exp -e 300 -c 1 -i 2 -a 1 -x {0.0 8.0 2 ------- null}
- -t 0.392120154734775 -s 5 -d 8 -p exp -e 300 -c 1 -i 2 -a 1 -x {0.0 8.0 2 ------- null}
h -t 0.392120154734775 -s 5 -d 8 -p exp -e 300 -c 1 -i 2 -a 1 -x {0.0 8.0 -1 ------- null}
+ -t 0.398720154734775 -s 0 -d 3 -p exp -e 300 -c 1 -i 19 -a 1 -x {0.0 8.0 14 ------- null}
- -t 0.399720154734775 -s 0 -d 3 -p exp -e 300 -c 1 -i 14 -a 1 -x {0.0 8.0 12 ------- null}
h -t 0.399720154734775 -s 0 -d 3 -p exp -e 300 -c 1 -i 14 -a 1 -x {0.0 8.0 -1 ------- null}
+ -t 0.400502544300524 -s 1 -d 3 -p exp -e 300 -c 2 -i 20 -a 2 -x {1.0 8.0 5 ------- null}
r -t 0.400970154734775 -s 0 -d 3 -p exp -e 300 -c 1 -i 10 -a 1 -x {0.0 8.0 10 ------- null}
+ -t 0.400970154734775 -s 3 -d 4 -p exp -e 300 -c 1 -i 10 -a 1 -x {0.0 8.0 10 ------- null}
- -t 0.400970154734775 -s 3 -d 4 -p exp -e 300 -c 2 -i 12 -a 2 -x {1.0 8.0 0 ------- null}
h -t 0.400970154734775 -s 3 -d 4 -p exp -e 300 -c 2 -i 12 -a 2 -x {1.0 8.0 -1 ------- null}
r -t 0.402220154734775 -s 3 -d 4 -p exp -e 300 -c 1 -i 8 -a 1 -x {0.0 8.0 8 ------- null}
+ -t 0.402220154734775 -s 4 -d 5 -p exp -e 300 -c 1 -i 8 -a 1 -x {0.0 8.0 8 ------- null}
- -t 0.402220154734775 -s 4 -d 5 -p exp -e 300 -c 1 -i 8 -a 1 -x {0.0 8.0 8 ------- null}
h -t 0.402220154734775 -s 4 -d 5 -p exp -e 300 -c 1 -i 8 -a 1 -x {0.0 8.0 -1 ------- null}
- -t 0.408752544300524 -s 1 -d 3 -p exp -e 300 -c 2 -i 16 -a 2 -x {1.0 8.0 3 ------- null}
h -t 0.408752544300524 -s 1 -d 3 -p exp -e 300 -c 2 -i 16 -a 2 -x {1.0 8.0 -1 ------- null}
r -t 0.410002544300524 -s 1 -d 3 -p exp -e 300 -c 2 -i 13 -a 2 -x {1.0 8.0 1 ------- null}
+ -t 0.410002544300524 -s 3 -d 4 -p exp -e 300 -c 2 -i 13 -a 2 -x {1.0 8.0 1 ------- null}
+ -t 0.410102544300524 -s 1 -d 3 -p exp -e 300 -c 2 -i 21 -a 2 -x {1.0 8.0 6 ------- null}
r -t 0.410870154734775 -s 4 -d 5 -p exp -e 300 -c 1 -i 3 -a 1 -x {0.0 8.0 3 ------- null}
+ -t 0.410870154734775 -s 5 -d 8 -p exp -e 300 -c 1 -i 3 -a 1 -x {0.0 8.0 3 ------- null}
- -t 0.410870154734775 -s 5 -d 8 -p exp -e 300 -c 1 -i 3 -a 1 -x {0.0 8.0 3 ------- null}
h -t 0.410870154734775 -s 5 -d 8 -p exp -e 300 -c 1 -i 3 -a 1 -x {0.0 8.0 -1 ------- null}
+ -t 0.414720154734775 -s 0 -d 3 -p exp -e 300 -c 1 -i 22 -a 1 -x {0.0 8.0 15 ------- null}
- -t 0.418470154734775 -s 0 -d 3 -p exp -e 300 -c 1 -i 17 -a 1 -x {0.0 8.0 13 ------- null}
h -t 0.418470154734775 -s 0 -d 3 -p exp -e 300 -c 1 -i 17 -a 1 -x {0.0 8.0 -1 ------- null}
+ -t 0.419702544300524 -s 1 -d 3 -p exp -e 300 -c 2 -i 23 -a 2 -x {1.0 8.0 7 ------- null}
r -t 0.419720154734775 -s 0 -d 3 -p exp -e 300 -c 1 -i 11 -a 1 -x {0.0 8.0 11 ------- null}
+ -t 0.419720154734775 -s 3 -d 4 -p exp -e 300 -c 1 -i 11 -a 1 -x {0.0 8.0 11 ------- null}
- -t 0.419720154734775 -s 3 -d 4 -p exp -e 300 -c 1 -i 10 -a 1 -x {0.0 8.0 10 ------- null}
h -t 0.419720154734775 -s 3 -d 4 -p exp -e 300 -c 1 -i 10 -a 1 -x {0.0 8.0 -1 ------- null}
r -t 0.420970154734775 -s 3 -d 4 -p exp -e 300 -c 1 -i 9 -a 1 -x {0.0 8.0 9 ------- null}
+ -t 0.420970154734775 -s 4 -d 5 -p exp -e 300 -c 1 -i 9 -a 1 -x {0.0 8.0 9 ------- null}
- -t 0.420970154734775 -s 4 -d 5 -p exp -e 300 -c 1 -i 9 -a 1 -x {0.0 8.0 9 ------- null}
h -t 0.420970154734775 -s 4 -d 5 -p exp -e 300 -c 1 -i 9 -a 1 -x {0.0 8.0 -1 ------- null}
- -t 0.427502544300524 -s 1 -d 3 -p exp -e 300 -c 2 -i 18 -a 2 -x {1.0 8.0 4 ------- null}
h -t 0.427502544300524 -s 1 -d 3 -p exp -e 300 -c 2 -i 18 -a 2 -x {1.0 8.0 -1 ------- null}
r -t 0.428752544300524 -s 1 -d 3 -p exp -e 300 -c 2 -i 15 -a 2 -x {1.0 8.0 2 ------- null}
+ -t 0.428752544300524 -s 3 -d 4 -p exp -e 300 -c 2 -i 15 -a 2 -x {1.0 8.0 2 ------- null}
+ -t 0.429302544300524 -s 1 -d 3 -p exp -e 300 -c 2 -i 24 -a 2 -x {1.0 8.0 8 ------- null}
r -t 0.429620154734775 -s 4 -d 5 -p exp -e 300 -c 1 -i 4 -a 1 -x {0.0 8.0 4 ------- null}
+ -t 0.429620154734775 -s 5 -d 8 -p exp -e 300 -c 1 -i 4 -a 1 -x {0.0 8.0 4 ------- null}
- -t 0.429620154734775 -s 5 -d 8 -p exp -e 300 -c 1 -i 4 -a 1 -x {0.0 8.0 4 ------- null}
h -t 0.429620154734775 -s 5 -d 8 -p exp -e 300 -c 1 -i 4 -a 1 -x {0.0 8.0 -1 ------- null}
+ -t 0.430720154734775 -s 0 -d 3 -p exp -e 300 -c 1 -i 25 -a 1 -x {0.0 8.0 16 ------- null}
- -t 0.437220154734775 -s 0 -d 3 -p exp -e 300 -c 1 -i 19 -a 1 -x {0.0 8.0 14 ------- null}
h -t 0.437220154734775 -s 0 -d 3 -p exp -e 300 -c 1 -i 19 -a 1 -x {0.0 8.0 -1 ------- null}
r -t 0.438470154734775 -s 0 -d 3 -p exp -e 300 -c 1 -i 14 -a 1 -x {0.0 8.0 12 ------- null}
+ -t 0.438470154734775 -s 3 -d 4 -p exp -e 300 -c 1 -i 14 -a 1 -x {0.0 8.0 12 ------- null}
- -t 0.438470154734775 -s 3 -d 4 -p exp -e 300 -c 2 -i 13 -a 2 -x {1.0 8.0 1 ------- null}
h -t 0.438470154734775 -s 3 -d 4 -p exp -e 300 -c 2 -i 13 -a 2 -x {1.0 8.0 -1 ------- null}
+ -t 0.438902544300524 -s 1 -d 3 -p exp -e 300 -c 2 -i 26 -a 2 -x {1.0 8.0 9 ------- null}
r -t 0.439720154734775 -s 3 -d 4 -p exp -e 300 -c 2 -i 12 -a 2 -x {1.0 8.0 0 ------- null}
+ -t 0.439720154734775 -s 4 -d 5 -p exp -e 300 -c 2 -i 12 -a 2 -x {1.0 8.0 0 ------- null}
- -t 0.439720154734775 -s 4 -d 5 -p exp -e 300 -c 2 -i 12 -a 2 -x {1.0 8.0 0 ------- null}
h -t 0.439720154734775 -s 4 -d 5 -p exp -e 300 -c 2 -i 12 -a 2 -x {1.0 8.0 -1 ------- null}
- -t 0.446252544300524 -s 1 -d 3 -p exp -e 300 -c 2 -i 20 -a 2 -x {1.0 8.0 5 ------- null}
h -t 0.446252544300524 -s 1 -d 3 -p exp -e 300 -c 2 -i 20 -a 2 -x {1.0 8.0 -1 ------- null}
+ -t 0.446720154734775 -s 0 -d 3 -p exp -e 300 -c 1 -i 27 -a 1 -x {0.0 8.0 17 ------- null}
r -t 0.447502544300524 -s 1 -d 3 -p exp -e 300 -c 2 -i 16 -a 2 -x {1.0 8.0 3 ------- null}
+ -t 0.447502544300524 -s 3 -d 4 -p exp -e 300 -c 2 -i 16 -a 2 -x {1.0 8.0 3 ------- null}
r -t 0.448370154734775 -s 4 -d 5 -p exp -e 300 -c 1 -i 5 -a 1 -x {0.0 8.0 5 ------- null}
+ -t 0.448370154734775 -s 5 -d 8 -p exp -e 300 -c 1 -i 5 -a 1 -x {0.0 8.0 5 ------- null}
- -t 0.448370154734775 -s 5 -d 8 -p exp -e 300 -c 1 -i 5 -a 1 -x {0.0 8.0 5 ------- null}
h -t 0.448370154734775 -s 5 -d 8 -p exp -e 300 -c 1 -i 5 -a 1 -x {0.0 8.0 -1 ------- null}
+ -t 0.448502544300524 -s 1 -d 3 -p exp -e 300 -c 2 -i 28 -a 2 -x {1.0 8.0 10 ------- null}
- -t 0.455970154734775 -s 0 -d 3 -p exp -e 300 -c 1 -i 22 -a 1 -x {0.0 8.0 15 ------- null}
h -t 0.455970154734775 -s 0 -d 3 -p exp -e 300 -c 1 -i 22 -a 1 -x {0.0 8.0 -1 ------- null}
r -t 0.457020154734775 -s 5 -d 8 -p exp -e 300 -c 1 -i 0 -a 1 -x {0.0 8.0 0 ------- null}
r -t 0.457220154734775 -s 0 -d 3 -p exp -e 300 -c 1 -i 17 -a 1 -x {0.0 8.0 13 ------- null}
+ -t 0.457220154734775 -s 3 -d 4 -p exp -e 300 -c 1 -i 17 -a 1 -x {0.0 8.0 13 ------- null}
- -t 0.457220154734775 -s 3 -d 4 -p exp -e 300 -c 1 -i 11 -a 1 -x {0.0 8.0 11 ------- null}
h -t 0.457220154734775 -s 3 -d 4 -p exp -e 300 -c 1 -i 11 -a 1 -x {0.0 8.0 -1 ------- null}
+ -t 0.458102544300524 -s 1 -d 3 -p exp -e 300 -c 2 -i 29 -a 2 -x {1.0 8.0 11 ------- null}
r -t 0.458470154734775 -s 3 -d 4 -p exp -e 300 -c 1 -i 10 -a 1 -x {0.0 8.0 10 ------- null}
+ -t 0.458470154734775 -s 4 -d 5 -p exp -e 300 -c 1 -i 10 -a 1 -x {0.0 8.0 10 ------- null}
- -t 0.458470154734775 -s 4 -d 5 -p exp -e 300 -c 1 -i 10 -a 1 -x {0.0 8.0 10 ------- null}
h -t 0.458470154734775 -s 4 -d 5 -p exp -e 300 -c 1 -i 10 -a 1 -x {0.0 8.0 -1 ------- null}
+ -t 0.462720154734775 -s 0 -d 3 -p exp -e 300 -c 1 -i 30 -a 1 -x {0.0 8.0 18 ------- null}
- -t 0.465002544300524 -s 1 -d 3 -p exp -e 300 -c 2 -i 21 -a 2 -x {1.0 8.0 6 ------- null}
h -t 0.465002544300524 -s 1 -d 3 -p exp -e 300 -c 2 -i 21 -a 2 -x {1.0 8.0 -1 ------- null}
r -t 0.466252544300524 -s 1 -d 3 -p exp -e 300 -c 2 -i 18 -a 2 -x {1.0 8.0 4 ------- null}
+ -t 0.466252544300524 -s 3 -d 4 -p exp -e 300 -c 2 -i 18 -a 2 -x {1.0 8.0 4 ------- null}
r -t 0.467120154734775 -s 4 -d 5 -p exp -e 300 -c 1 -i 6 -a 1 -x {0.0 8.0 6 ------- null}
+ -t 0.467120154734775 -s 5 -d 8 -p exp -e 300 -c 1 -i 6 -a 1 -x {0.0 8.0 6 ------- null}
- -t 0.467120154734775 -s 5 -d 8 -p exp -e 300 -c 1 -i 6 -a 1 -x {0.0 8.0 6 ------- null}
h -t 0.467120154734775 -s 5 -d 8 -p exp -e 300 -c 1 -i 6 -a 1 -x {0.0 8.0 -1 ------- null}
+ -t 0.467702544300524 -s 1 -d 3 -p exp -e 300 -c 2 -i 31 -a 2 -x {1.0 8.0 12 ------- null}
- -t 0.474720154734775 -s 0 -d 3 -p exp -e 300 -c 1 -i 25 -a 1 -x {0.0 8.0 16 ------- null}
h -t 0.474720154734775 -s 0 -d 3 -p exp -e 300 -c 1 -i 25 -a 1 -x {0.0 8.0 -1 ------- null}
r -t 0.475770154734775 -s 5 -d 8 -p exp -e 300 -c 1 -i 1 -a 1 -x {0.0 8.0 1 ------- null}
r -t 0.475970154734775 -s 0 -d 3 -p exp -e 300 -c 1 -i 19 -a 1 -x {0.0 8.0 14 ------- null}
+ -t 0.475970154734775 -s 3 -d 4 -p exp -e 300 -c 1 -i 19 -a 1 -x {0.0 8.0 14 ------- null}
- -t 0.475970154734775 -s 3 -d 4 -p exp -e 300 -c 2 -i 15 -a 2 -x {1.0 8.0 2 ------- null}
h -t 0.475970154734775 -s 3 -d 4 -p exp -e 300 -c 2 -i 15 -a 2 -x {1.0 8.0 -1 ------- null}
r -t 0.477220154734775 -s 3 -d 4 -p exp -e 300 -c 2 -i 13 -a 2 -x {1.0 8.0 1 ------- null}
+ -t 0.477220154734775 -s 4 -d 5 -p exp -e 300 -c 2 -i 13 -a 2 -x {1.0 8.0 1 ------- null}
- -t 0.477220154734775 -s 4 -d 5 -p exp -e 300 -c 2 -i 13 -a 2 -x {1.0 8.0 1 ------- null}
h -t 0.477220154734775 -s 4 -d 5 -p exp -e 300 -c 2 -i 13 -a 2 -x {1.0 8.0 -1 ------- null}
+ -t 0.477302544300524 -s 1 -d 3 -p exp -e 300 -c 2 -i 32 -a 2 -x {1.0 8.0 13 ------- null}
+ -t 0.478720154734775 -s 0 -d 3 -p exp -e 300 -c 1 -i 33 -a 1 -x {0.0 8.0 19 ------- null}
- -t 0.483752544300524 -s 1 -d 3 -p exp -e 300 -c 2 -i 23 -a 2 -x {1.0 8.0 7 ------- null}
h -t 0.483752544300524 -s 1 -d 3 -p exp -e 300 -c 2 -i 23 -a 2 -x {1.0 8.0 -1 ------- null}
r -t 0.485002544300524 -s 1 -d 3 -p exp -e 300 -c 2 -i 20 -a 2 -x {1.0 8.0 5 ------- null}
+ -t 0.485002544300524 -s 3 -d 4 -p exp -e 300 -c 2 -i 20 -a 2 -x {1.0 8.0 5 ------- null}
r -t 0.485870154734775 -s 4 -d 5 -p exp -e 300 -c 1 -i 7 -a 1 -x {0.0 8.0 7 ------- null}
+ -t 0.485870154734775 -s 5 -d 8 -p exp -e 300 -c 1 -i 7 -a 1 -x {0.0 8.0 7 ------- null}
- -t 0.485870154734775 -s 5 -d 8 -p exp -e 300 -c 1 -i 7 -a 1 -x {0.0 8.0 7 ------- null}
h -t 0.485870154734775 -s 5 -d 8 -p exp -e 300 -c 1 -i 7 -a 1 -x {0.0 8.0 -1 ------- null}
+ -t 0.486902544300524 -s 1 -d 3 -p exp -e 300 -c 2 -i 34 -a 2 -x {1.0 8.0 14 ------- null}
- -t 0.493470154734775 -s 0 -d 3 -p exp -e 300 -c 1 -i 27 -a 1 -x {0.0 8.0 17 ------- null}
h -t 0.493470154734775 -s 0 -d 3 -p exp -e 300 -c 1 -i 27 -a 1 -x {0.0 8.0 -1 ------- null}
r -t 0.494520154734775 -s 5 -d 8 -p exp -e 300 -c 1 -i 2 -a 1 -x {0.0 8.0 2 ------- null}
r -t 0.494720154734775 -s 0 -d 3 -p exp -e 300 -c 1 -i 22 -a 1 -x {0.0 8.0 15 ------- null}
+ -t 0.494720154734775 -s 3 -d 4 -p exp -e 300 -c 1 -i 22 -a 1 -x {0.0 8.0 15 ------- null}
- -t 0.494720154734775 -s 3 -d 4 -p exp -e 300 -c 1 -i 14 -a 1 -x {0.0 8.0 12 ------- null}
h -t 0.494720154734775 -s 3 -d 4 -p exp -e 300 -c 1 -i 14 -a 1 -x {0.0 8.0 -1 ------- null}
+ -t 0.494720154734775 -s 0 -d 3 -p exp -e 300 -c 1 -i 35 -a 1 -x {0.0 8.0 20 ------- null}
r -t 0.495970154734775 -s 3 -d 4 -p exp -e 300 -c 1 -i 11 -a 1 -x {0.0 8.0 11 ------- null}
+ -t 0.495970154734775 -s 4 -d 5 -p exp -e 300 -c 1 -i 11 -a 1 -x {0.0 8.0 11 ------- null}
- -t 0.495970154734775 -s 4 -d 5 -p exp -e 300 -c 1 -i 11 -a 1 -x {0.0 8.0 11 ------- null}
h -t 0.495970154734775 -s 4 -d 5 -p exp -e 300 -c 1 -i 11 -a 1 -x {0.0 8.0 -1 ------- null}
+ -t 0.496502544300524 -s 1 -d 3 -p exp -e 300 -c 2 -i 36 -a 2 -x {1.0 8.0 15 ------- null}
- -t 0.502502544300524 -s 1 -d 3 -p exp -e 300 -c 2 -i 24 -a 2 -x {1.0 8.0 8 ------- null}
h -t 0.502502544300524 -s 1 -d 3 -p exp -e 300 -c 2 -i 24 -a 2 -x {1.0 8.0 -1 ------- null}
r -t 0.503752544300524 -s 1 -d 3 -p exp -e 300 -c 2 -i 21 -a 2 -x {1.0 8.0 6 ------- null}
+ -t 0.503752544300524 -s 3 -d 4 -p exp -e 300 -c 2 -i 21 -a 2 -x {1.0 8.0 6 ------- null}
r -t 0.504620154734775 -s 4 -d 5 -p exp -e 300 -c 1 -i 8 -a 1 -x {0.0 8.0 8 ------- null}
+ -t 0.504620154734775 -s 5 -d 8 -p exp -e 300 -c 1 -i 8 -a 1 -x {0.0 8.0 8 ------- null}
- -t 0.504620154734775 -s 5 -d 8 -p exp -e 300 -c 1 -i 8 -a 1 -x {0.0 8.0 8 ------- null}
h -t 0.504620154734775 -s 5 -d 8 -p exp -e 300 -c 1 -i 8 -a 1 -x {0.0 8.0 -1 ------- null}
+ -t 0.506102544300524 -s 1 -d 3 -p exp -e 300 -c 2 -i 37 -a 2 -x {1.0 8.0 16 ------- null}
+ -t 0.510720154734775 -s 0 -d 3 -p exp -e 300 -c 1 -i 38 -a 1 -x {0.0 8.0 21 ------- null}
- -t 0.512220154734775 -s 0 -d 3 -p exp -e 300 -c 1 -i 30 -a 1 -x {0.0 8.0 18 ------- null}
h -t 0.512220154734775 -s 0 -d 3 -p exp -e 300 -c 1 -i 30 -a 1 -x {0.0 8.0 -1 ------- null}
r -t 0.513270154734775 -s 5 -d 8 -p exp -e 300 -c 1 -i 3 -a 1 -x {0.0 8.0 3 ------- null}
r -t 0.513470154734775 -s 0 -d 3 -p exp -e 300 -c 1 -i 25 -a 1 -x {0.0 8.0 16 ------- null}
+ -t 0.513470154734775 -s 3 -d 4 -p exp -e 300 -c 1 -i 25 -a 1 -x {0.0 8.0 16 ------- null}
- -t 0.513470154734775 -s 3 -d 4 -p exp -e 300 -c 2 -i 16 -a 2 -x {1.0 8.0 3 ------- null}
h -t 0.513470154734775 -s 3 -d 4 -p exp -e 300 -c 2 -i 16 -a 2 -x {1.0 8.0 -1 ------- null}
r -t 0.514720154734775 -s 3 -d 4 -p exp -e 300 -c 2 -i 15 -a 2 -x {1.0 8.0 2 ------- null}
+ -t 0.514720154734775 -s 4 -d 5 -p exp -e 300 -c 2 -i 15 -a 2 -x {1.0 8.0 2 ------- null}
- -t 0.514720154734775 -s 4 -d 5 -p exp -e 300 -c 2 -i 15 -a 2 -x {1.0 8.0 2 ------- null}
h -t 0.514720154734775 -s 4 -d 5 -p exp -e 300 -c 2 -i 15 -a 2 -x {1.0 8.0 -1 ------- null}
+ -t 0.515702544300524 -s 1 -d 3 -p exp -e 300 -c 2 -i 39 -a 2 -x {1.0 8.0 17 ------- null}
- -t 0.521252544300524 -s 1 -d 3 -p exp -e 300 -c 2 -i 26 -a 2 -x {1.0 8.0 9 ------- null}
h -t 0.521252544300524 -s 1 -d 3 -p exp -e 300 -c 2 -i 26 -a 2 -x {1.0 8.0 -1 ------- null}
r -t 0.522502544300524 -s 1 -d 3 -p exp -e 300 -c 2 -i 23 -a 2 -x {1.0 8.0 7 ------- null}
+ -t 0.522502544300524 -s 3 -d 4 -p exp -e 300 -c 2 -i 23 -a 2 -x {1.0 8.0 7 ------- null}
r -t 0.523370154734775 -s 4 -d 5 -p exp -e 300 -c 1 -i 9 -a 1 -x {0.0 8.0 9 ------- null}
+ -t 0.523370154734775 -s 5 -d 8 -p exp -e 300 -c 1 -i 9 -a 1 -x {0.0 8.0 9 ------- null}
- -t 0.523370154734775 -s 5 -d 8 -p exp -e 300 -c 1 -i 9 -a 1 -x {0.0 8.0 9 ------- null}
h -t 0.523370154734775 -s 5 -d 8 -p exp -e 300 -c 1 -i 9 -a 1 -x {0.0 8.0 -1 ------- null}
+ -t 0.525302544300524 -s 1 -d 3 -p exp -e 300 -c 2 -i 40 -a 2 -x {1.0 8.0 18 ------- null}
+ -t 0.526720154734775 -s 0 -d 3 -p exp -e 300 -c 1 -i 41 -a 1 -x {0.0 8.0 22 ------- null}
- -t 0.530970154734775 -s 0 -d 3 -p exp -e 300 -c 1 -i 33 -a 1 -x {0.0 8.0 19 ------- null}
h -t 0.530970154734775 -s 0 -d 3 -p exp -e 300 -c 1 -i 33 -a 1 -x {0.0 8.0 -1 ------- null}
r -t 0.532020154734775 -s 5 -d 8 -p exp -e 300 -c 1 -i 4 -a 1 -x {0.0 8.0 4 ------- null}
r -t 0.532220154734775 -s 0 -d 3 -p exp -e 300 -c 1 -i 27 -a 1 -x {0.0 8.0 17 ------- null}
+ -t 0.532220154734775 -s 3 -d 4 -p exp -e 300 -c 1 -i 27 -a 1 -x {0.0 8.0 17 ------- null}
- -t 0.532220154734775 -s 3 -d 4 -p exp -e 300 -c 1 -i 17 -a 1 -x {0.0 8.0 13 ------- null}
h -t 0.532220154734775 -s 3 -d 4 -p exp -e 300 -c 1 -i 17 -a 1 -x {0.0 8.0 -1 ------- null}
r -t 0.533470154734775 -s 3 -d 4 -p exp -e 300 -c 1 -i 14 -a 1 -x {0.0 8.0 12 ------- null}
+ -t 0.533470154734775 -s 4 -d 5 -p exp -e 300 -c 1 -i 14 -a 1 -x {0.0 8.0 12 ------- null}
- -t 0.533470154734775 -s 4 -d 5 -p exp -e 300 -c 1 -i 14 -a 1 -x {0.0 8.0 12 ------- null}
h -t 0.533470154734775 -s 4 -d 5 -p exp -e 300 -c 1 -i 14 -a 1 -x {0.0 8.0 -1 ------- null}
+ -t 0.534902544300524 -s 1 -d 3 -p exp -e 300 -c 2 -i 42 -a 2 -x {1.0 8.0 19 ------- null}
- -t 0.540002544300524 -s 1 -d 3 -p exp -e 300 -c 2 -i 28 -a 2 -x {1.0 8.0 10 ------- null}
h -t 0.540002544300524 -s 1 -d 3 -p exp -e 300 -c 2 -i 28 -a 2 -x {1.0 8.0 -1 ------- null}
r -t 0.541252544300524 -s 1 -d 3 -p exp -e 300 -c 2 -i 24 -a 2 -x {1.0 8.0 8 ------- null}
+ -t 0.541252544300524 -s 3 -d 4 -p exp -e 300 -c 2 -i 24 -a 2 -x {1.0 8.0 8 ------- null}
r -t 0.542120154734775 -s 4 -d 5 -p exp -e 300 -c 2 -i 12 -a 2 -x {1.0 8.0 0 ------- null}
+ -t 0.542120154734775 -s 5 -d 8 -p exp -e 300 -c 2 -i 12 -a 2 -x {1.0 8.0 0 ------- null}
- -t 0.542120154734775 -s 5 -d 8 -p exp -e 300 -c 2 -i 12 -a 2 -x {1.0 8.0 0 ------- null}
h -t 0.542120154734775 -s 5 -d 8 -p exp -e 300 -c 2 -i 12 -a 2 -x {1.0 8.0 -1 ------- null}
+ -t 0.542720154734775 -s 0 -d 3 -p exp -e 300 -c 1 -i 43 -a 1 -x {0.0 8.0 23 ------- null}
+ -t 0.544502544300524 -s 1 -d 3 -p exp -e 300 -c 2 -i 44 -a 2 -x {1.0 8.0 20 ------- null}
- -t 0.549720154734775 -s 0 -d 3 -p exp -e 300 -c 1 -i 35 -a 1 -x {0.0 8.0 20 ------- null}
h -t 0.549720154734775 -s 0 -d 3 -p exp -e 300 -c 1 -i 35 -a 1 -x {0.0 8.0 -1 ------- null}